/*--------------------------------*- C++ -*----------------------------------*\
| =========                 |                                                 |
| \\      /  F ield         | foam-extend: Open Source CFD                    |
|  \\    /   O peration     | Version:     4.1                                |
|   \\  /    A nd           | Web:         http://www.foam-extend.org         |
|    \\/     M anipulation  |                                                 |
\*---------------------------------------------------------------------------*/
FoamFile
{
    version     2.0;
    format      ascii;
    class       surfaceScalarField;
    location    "0.45";
    object      phi_0;
}
// * * * * * * * * * * * * * * * * * * * * * * * * * * * * * * * * * * * * * //

dimensions      [0 3 -1 0 0 0 0];

internalField   nonuniform List<scalar> 
4432
(
3.36514e-06
-3.36514e-06
6.01019e-06
-2.64504e-06
9.44751e-06
-3.43732e-06
1.25534e-05
-3.10591e-06
1.5738e-05
-3.18463e-06
1.79584e-05
-2.22034e-06
2.00204e-05
-2.06205e-06
2.15764e-05
-1.55593e-06
2.21322e-05
-5.55867e-07
1.90637e-05
3.06854e-06
3.2955e-05
-1.38913e-05
3.47748e-05
-1.81977e-06
3.5735e-05
-9.6018e-07
3.54323e-05
3.02687e-07
3.41632e-05
1.26906e-06
3.25273e-05
1.6359e-06
3.39806e-05
-1.45331e-06
3.02704e-05
3.71025e-06
2.69591e-05
3.31127e-06
2.1372e-05
5.58714e-06
1.63906e-05
4.98141e-06
8.40907e-06
7.9815e-06
8.40907e-06
3.34638e-06
-6.71152e-06
6.06021e-06
-5.35887e-06
9.51507e-06
-6.89218e-06
1.24574e-05
-6.04823e-06
1.56923e-05
-6.41956e-06
1.83559e-05
-4.88392e-06
2.06947e-05
-4.40088e-06
2.25693e-05
-3.43051e-06
2.27402e-05
-7.26786e-07
3.71976e-05
-1.13888e-05
3.56561e-05
-1.23498e-05
3.72604e-05
-3.42409e-06
3.76315e-05
-1.33129e-06
3.72273e-05
7.06922e-07
3.52228e-05
3.2736e-06
3.32418e-05
3.61691e-06
1.93598e-05
1.24287e-05
1.85013e-05
4.56874e-06
1.58285e-05
5.98401e-06
2.00958e-05
1.31992e-06
1.44661e-05
1.0611e-05
9.31726e-06
1.31304e-05
1.77263e-05
3.13949e-06
-9.85101e-06
6.0374e-06
-8.25679e-06
9.60374e-06
-1.04585e-05
1.22907e-05
-8.73522e-06
1.59616e-05
-1.00904e-05
1.88221e-05
-7.74441e-06
2.08025e-05
-6.38137e-06
2.30193e-05
-5.64725e-06
2.23517e-05
-5.9168e-08
3.48131e-05
-2.38503e-05
3.38026e-05
-1.13393e-05
3.43949e-05
-4.01637e-06
3.38243e-05
-7.60671e-07
3.32582e-05
1.273e-06
3.23327e-05
4.19911e-06
3.09605e-05
4.98907e-06
3.36696e-05
9.7196e-06
3.18056e-05
6.43276e-06
2.85058e-05
9.28379e-06
2.35912e-05
6.23451e-06
1.88635e-05
1.53387e-05
8.47255e-06
2.35214e-05
2.61989e-05
2.91502e-06
-1.2766e-05
6.19556e-06
-1.15373e-05
9.89261e-06
-1.41556e-05
1.25258e-05
-1.13684e-05
1.62816e-05
-1.38462e-05
1.87842e-05
-1.02471e-05
2.16586e-05
-9.25573e-06
2.23992e-05
-6.38787e-06
3.62307e-05
-1.38906e-05
3.18056e-05
-1.94253e-05
3.03633e-05
-9.89691e-06
2.86344e-05
-2.2875e-06
2.723e-05
6.43715e-07
2.62257e-05
2.2773e-06
2.62559e-05
4.16896e-06
2.55267e-05
5.71825e-06
2.68012e-05
8.44503e-06
2.61724e-05
7.06163e-06
2.52834e-05
1.01727e-05
2.07368e-05
1.07812e-05
1.64717e-05
1.96037e-05
8.64935e-06
3.13438e-05
3.48482e-05
2.7217e-06
-1.54877e-05
6.24931e-06
-1.50649e-05
1.00363e-05
-1.79426e-05
1.2877e-05
-1.42091e-05
1.61213e-05
-1.70904e-05
1.81667e-05
-1.22925e-05
2.14331e-05
-1.25221e-05
2.14768e-05
-6.43155e-06
3.27527e-05
-2.51666e-05
2.869e-05
-1.53626e-05
2.71362e-05
-8.34306e-06
2.53132e-05
-4.64549e-07
2.42757e-05
1.68125e-06
2.30589e-05
3.49405e-06
2.19812e-05
5.24667e-06
1.99893e-05
7.71016e-06
1.9342e-05
9.09229e-06
1.72732e-05
9.13045e-06
1.74904e-05
9.95557e-06
1.81644e-05
1.01071e-05
1.63708e-05
2.13973e-05
8.3269e-06
3.93877e-05
4.31751e-05
2.92626e-06
-1.8414e-05
6.57997e-06
-1.87186e-05
1.02107e-05
-2.15734e-05
1.26853e-05
-1.66836e-05
1.56622e-05
-2.00674e-05
1.88993e-05
-1.55295e-05
1.96686e-05
-1.32915e-05
3.13489e-05
-1.81118e-05
2.78322e-05
-2.16499e-05
2.68708e-05
-1.44012e-05
2.52301e-05
-6.70236e-06
2.40892e-05
6.76348e-07
2.2729e-05
3.04142e-06
2.09646e-05
5.25853e-06
1.98236e-05
6.38764e-06
1.7977e-05
9.55673e-06
1.7474e-05
9.59534e-06
1.67016e-05
9.9028e-06
1.55154e-05
1.11418e-05
7.19737e-06
1.84252e-05
1.50946e-05
1.35001e-05
8.00566e-06
4.64766e-05
5.11808e-05
3.24089e-06
-2.16549e-05
6.62733e-06
-2.21051e-05
9.88756e-06
-2.48336e-05
1.24992e-05
-1.92953e-05
1.56795e-05
-2.32477e-05
1.71832e-05
-1.70332e-05
1.69684e-05
-1.30767e-05
2.76371e-05
-2.87805e-05
2.68356e-05
-2.08484e-05
2.62895e-05
-1.38551e-05
2.5003e-05
-5.41587e-06
2.43897e-05
1.28972e-06
2.29172e-05
4.51386e-06
1.98083e-05
8.36741e-06
1.86757e-05
7.52025e-06
1.73703e-05
1.08621e-05
1.5658e-05
1.13077e-05
1.4733e-05
1.08278e-05
1.30395e-05
1.28352e-05
1.59249e-05
1.55398e-05
8.27417e-06
2.11508e-05
7.98919e-06
4.67616e-05
5.917e-05
3.55182e-06
-2.52067e-05
6.81959e-06
-2.53728e-05
9.87023e-06
-2.78842e-05
1.23926e-05
-2.18176e-05
1.56741e-05
-2.65292e-05
1.57908e-05
-1.71499e-05
2.75597e-05
-2.48455e-05
2.66274e-05
-2.78482e-05
2.69916e-05
-2.12127e-05
2.65984e-05
-1.34619e-05
2.51819e-05
-3.99936e-06
2.38008e-05
2.67088e-06
2.20052e-05
6.30943e-06
2.01012e-05
1.02714e-05
1.8937e-05
8.6845e-06
1.75592e-05
1.22399e-05
1.6779e-05
1.20879e-05
1.69673e-05
1.06395e-05
1.57143e-05
1.40882e-05
7.32288e-06
2.39313e-05
1.59281e-05
1.25456e-05
1.42315e-05
4.84582e-05
7.34014e-05
-0.00022767
0.00022767
-0.000429844
0.000202176
-0.000451113
2.12684e-05
-0.000418801
-3.23123e-05
-0.000382671
-3.61299e-05
-0.000352164
-3.0507e-05
-0.000332221
-1.99429e-05
-0.000315921
-1.63004e-05
-0.000302316
-1.36054e-05
-0.000287804
-1.45121e-05
-0.000270675
-1.71291e-05
-0.000247962
-2.27121e-05
-0.000224766
-2.31959e-05
-0.000203471
-2.12952e-05
-0.000126756
-7.67153e-05
-0.000120223
-6.53333e-06
-0.000180131
5.99088e-05
-0.000120961
-5.91707e-05
-0.000120961
-0.000156189
0.000383858
-0.000215076
0.000261065
-0.000142938
-5.08697e-05
-0.000111776
-6.34757e-05
-5.01433e-05
-9.77621e-05
-7.4326e-05
-6.32421e-06
-9.35236e-05
-7.45241e-07
-0.000128392
1.85678e-05
-0.000142983
9.85582e-07
-0.000149874
-7.62094e-06
-0.000138517
-2.84866e-05
-0.000121796
-3.94325e-05
-6.78154e-05
-7.71767e-05
-7.72248e-05
-1.18857e-05
-0.000107685
-4.62547e-05
-0.000118185
3.96659e-06
-8.95329e-05
3.12564e-05
-8.61787e-05
-6.25249e-05
-0.000207139
-8.42155e-05
0.000468073
-0.000114871
0.00029172
-0.000100208
-6.55328e-05
-6.35632e-05
-0.000100121
-9.57517e-05
-6.55737e-05
-8.3237e-05
-1.88388e-05
-8.81551e-05
4.17281e-06
-0.00010673
3.71429e-05
-0.000122942
1.7197e-05
-0.000127946
-2.61627e-06
-0.000113337
-4.30962e-05
-9.1422e-05
-6.13474e-05
-7.91258e-05
-8.94729e-05
-6.01279e-05
-3.08836e-05
-9.79239e-05
-8.45876e-06
-0.000109976
1.60185e-05
-8.29677e-05
4.24833e-06
-5.87641e-05
-8.67284e-05
-0.000265904
-3.83453e-05
0.000506418
3.47218e-05
0.000218653
6.52261e-05
-9.60371e-05
3.20497e-05
-6.69452e-05
2.96289e-05
-6.31531e-05
5.0118e-05
-3.93279e-05
-7.16101e-07
5.50069e-05
-2.56469e-05
6.20737e-05
-5.77907e-05
4.93408e-05
-6.83959e-05
7.98885e-06
-6.96118e-05
-4.18804e-05
-6.94748e-05
-6.14843e-05
-5.43978e-05
-0.00010455
-4.24506e-05
-4.28308e-05
-5.28802e-05
1.97079e-06
-0.000126933
9.0071e-05
-6.02556e-05
-6.24288e-05
-5.55077e-05
-9.1476e-05
-0.000321411
2.86819e-05
0.000477736
0.000178915
6.84208e-05
0.000133835
-5.09575e-05
0.000192286
-0.000125396
0.00016117
-3.20377e-05
0.000144407
-2.2565e-05
0.000110868
8.85461e-05
2.75955e-05
0.000145346
-1.05509e-05
8.74871e-05
-1.59858e-05
1.34237e-05
-8.75409e-06
-4.91121e-05
-1.51587e-05
-5.50797e-05
-4.20197e-05
-7.76888e-05
9.52323e-07
-8.58028e-05
-5.38239e-06
8.30551e-06
-2.76792e-05
0.000112368
-3.67001e-05
-5.34078e-05
-3.21971e-05
-9.59792e-05
-0.000353608
0.000110534
0.000367202
0.000138561
4.03942e-05
0.000117467
-2.98635e-05
9.14529e-05
-9.93827e-05
0.00015417
-9.47546e-05
0.000176774
-4.51693e-05
0.000160961
0.000104359
0.000101311
0.000204996
3.36296e-05
0.000155169
6.42206e-06
4.06313e-05
4.02705e-06
-4.67171e-05
-1.11471e-05
-3.99056e-05
-1.27576e-05
-7.60782e-05
9.78573e-06
-0.000108346
1.28681e-05
5.22311e-06
6.80997e-06
0.000118426
-2.54822e-05
-2.11155e-05
-2.62343e-05
-9.52275e-05
-0.000379843
0.000141786
0.000225415
0.000118642
6.35391e-05
0.00016951
-8.07306e-05
0.000139237
-6.91097e-05
0.000156273
-0.000111791
0.00011097
1.33936e-07
0.000107488
0.000107841
0.000128528
0.000183956
6.64993e-05
0.000217197
1.5827e-05
9.13037e-05
2.15423e-06
-3.30441e-05
-3.42565e-06
-3.43257e-05
-1.6899e-07
-7.93349e-05
1.83554e-05
-0.000126871
2.33523e-05
2.26251e-07
3.00976e-05
0.000111681
-7.14876e-06
1.61308e-05
-1.36863e-05
-8.8689e-05
-0.000393529
8.7237e-05
0.000138178
0.000125537
2.52391e-05
0.000120686
-7.58794e-05
0.000110952
-5.93758e-05
6.83017e-05
-6.91403e-05
9.46645e-05
-2.6229e-05
0.000115638
8.68674e-05
0.000159647
0.000139947
0.000118099
0.000258745
4.4906e-05
0.000164497
7.71971e-06
4.14221e-06
1.70468e-06
-2.83107e-05
9.66905e-06
-8.72993e-05
2.73076e-05
-0.000144509
4.65501e-05
-1.90163e-05
3.56022e-05
0.000122629
1.33067e-06
5.04023e-05
-8.33357e-06
-7.90238e-05
-0.000401863
7.14508e-06
-3.23518e-05
1.37323e-05
-3.19601e-05
1.89067e-05
-3.30586e-05
2.5696e-05
-2.86068e-05
2.99005e-05
-3.07337e-05
5.05418e-05
-3.77913e-05
5.634e-05
-3.06438e-05
5.82992e-05
-2.98074e-05
5.96511e-05
-2.25646e-05
5.96235e-05
-1.34343e-05
5.91638e-05
-3.53965e-06
5.69264e-05
4.90821e-06
5.1981e-05
1.12549e-05
4.85331e-05
1.37193e-05
4.2486e-05
1.47316e-05
3.79169e-05
1.6809e-05
3.11325e-05
1.88723e-05
3.02458e-05
1.15261e-05
3.13839e-05
1.29502e-05
4.31902e-05
1.2125e-05
3.12321e-05
2.45037e-05
5.87594e-05
2.09309e-05
6.63713e-05
6.57895e-05
6.50599e-06
-3.88578e-05
1.38186e-05
-3.92727e-05
1.97488e-05
-3.89889e-05
3.60035e-05
-4.48615e-05
4.38488e-05
-3.8579e-05
5.0906e-05
-4.48485e-05
5.75826e-05
-3.73203e-05
6.21267e-05
-3.43515e-05
6.48386e-05
-2.52765e-05
6.61397e-05
-1.47354e-05
6.63874e-05
-3.78733e-06
6.33137e-05
7.98197e-06
5.95096e-05
1.5059e-05
5.51135e-05
1.81154e-05
5.12573e-05
1.85877e-05
4.68218e-05
2.12445e-05
4.50513e-05
2.06428e-05
4.36077e-05
1.29698e-05
3.82283e-05
1.83295e-05
2.38596e-05
2.64937e-05
3.94631e-05
8.90014e-06
4.36735e-05
1.67206e-05
3.73698e-05
7.2675e-05
5.02928e-06
-4.38871e-05
9.70652e-06
-4.39499e-05
1.48496e-05
-4.4132e-05
1.91813e-05
-4.91932e-05
2.30839e-05
-4.24816e-05
2.27745e-05
-4.45391e-05
2.48986e-05
-3.94444e-05
2.59928e-05
-3.54457e-05
2.63932e-05
-2.56769e-05
2.96168e-05
-1.7959e-05
3.36907e-05
-7.86122e-06
3.95744e-05
2.09831e-06
4.7761e-05
6.87237e-06
4.89396e-05
1.69368e-05
4.54404e-05
2.20869e-05
4.45647e-05
2.21202e-05
4.38366e-05
2.13709e-05
4.06646e-05
1.61418e-05
4.22995e-05
1.66947e-05
4.9811e-05
1.89821e-05
3.92512e-05
1.946e-05
4.58612e-05
1.01106e-05
2.51629e-05
5.80681e-05
2.04554e-06
-4.59326e-05
4.17248e-06
-4.60768e-05
7.14762e-06
-4.71071e-05
7.56204e-06
-4.96076e-05
1.02966e-05
-4.52162e-05
1.04233e-05
-4.46658e-05
8.40443e-06
-3.74256e-05
3.84568e-06
-3.0887e-05
-3.68458e-06
-1.81466e-05
-1.3491e-05
-8.15259e-06
-1.92691e-05
-2.08309e-06
-9.29479e-06
-7.87601e-06
-1.76038e-06
-6.62036e-07
1.32102e-05
1.96617e-06
1.63792e-05
1.89179e-05
1.71312e-05
2.13682e-05
2.39709e-05
1.45313e-05
3.23774e-05
7.73524e-06
3.99366e-05
9.1355e-06
5.17524e-05
7.16626e-06
6.6168e-05
5.04437e-06
7.55001e-05
7.7849e-07
1.15584e-05
8.91046e-05
1.67008e-06
-4.76027e-05
3.60324e-06
-4.801e-05
5.72403e-06
-4.92279e-05
6.81077e-06
-5.06944e-05
8.34066e-06
-4.67461e-05
7.62564e-06
-4.39507e-05
5.95521e-06
-3.57551e-05
1.84758e-06
-2.67794e-05
-6.23521e-06
-1.00638e-05
-1.73122e-05
2.92439e-06
-2.31557e-05
3.76039e-06
-3.42039e-05
3.17227e-06
-2.90956e-05
-5.77034e-06
-4.44668e-05
1.73373e-05
-3.1154e-05
5.60505e-06
-2.95132e-05
1.97274e-05
-1.74277e-05
2.44572e-06
-1.84135e-06
-7.85111e-06
2.1264e-05
-1.39699e-05
3.37425e-05
-5.31221e-06
3.61808e-05
2.60607e-06
4.29665e-05
-6.0072e-06
-1.42522e-05
6.87772e-05
1.58687e-06
-4.91896e-05
2.23203e-06
-4.86552e-05
2.12944e-06
-4.91253e-05
1.55883e-06
-5.01238e-05
-1.37326e-06
-4.3814e-05
-2.3648e-06
-4.29592e-05
-7.04738e-06
-3.10725e-05
-1.1967e-05
-2.18597e-05
-1.60981e-05
-5.93273e-06
-1.16601e-05
-1.51367e-06
-1.89196e-05
1.10199e-05
-2.93592e-05
1.36119e-05
-3.46656e-05
-4.63939e-07
-6.84062e-05
5.10779e-05
-8.42814e-05
2.14803e-05
-7.99003e-05
1.53463e-05
-6.26727e-05
-1.47818e-05
-2.46919e-05
-4.58319e-05
6.37675e-06
-4.50386e-05
2.73189e-05
-2.62543e-05
4.88953e-05
-1.89703e-05
8.28539e-05
-3.99659e-05
-1.13299e-05
7.99316e-05
-1.60989e-06
-4.75797e-05
-5.75862e-06
-4.45064e-05
-1.18292e-05
-4.30547e-05
-1.53334e-05
-4.66196e-05
-2.19368e-05
-3.72105e-05
-2.27282e-05
-4.21678e-05
-2.85204e-05
-2.52803e-05
-3.64187e-05
-1.39614e-05
-3.96492e-05
-2.70228e-06
-4.17944e-05
6.31556e-07
-4.04334e-05
9.65884e-06
-3.67468e-05
9.92537e-06
-5.2308e-05
1.50973e-05
-2.69083e-05
2.56782e-05
-4.23637e-05
3.69357e-05
-3.30639e-05
6.04655e-06
-2.90963e-05
-1.87495e-05
-2.07914e-07
-7.47202e-05
1.77358e-05
-6.29823e-05
5.07818e-05
-5.93003e-05
6.8281e-05
-3.64695e-05
6.95705e-05
-4.12554e-05
-3.25205e-05
9.0761e-05
-8.01436e-06
-3.95653e-05
-1.15237e-05
-4.09971e-05
-1.26526e-05
-4.19258e-05
-2.16084e-05
-3.76639e-05
-1.73879e-05
-4.1431e-05
-2.25996e-05
-3.69561e-05
-1.91655e-05
-2.87144e-05
-2.71252e-05
-6.00168e-06
-2.82303e-05
-1.59718e-06
-3.6821e-05
9.22226e-06
-3.7015e-05
9.85276e-06
-3.72984e-05
1.02088e-05
-2.88334e-05
6.63223e-06
-4.76171e-05
4.44619e-05
-3.35233e-05
2.28419e-05
-2.0755e-05
-6.72175e-06
-6.28129e-08
-3.94416e-05
9.70729e-06
-8.44903e-05
2.04497e-05
-7.37248e-05
1.12786e-05
-5.01291e-05
2.21343e-05
-4.73252e-05
1.66904e-05
-3.58115e-05
-4.67182e-05
3.08882e-05
-1.12746e-05
-2.82907e-05
-1.38248e-05
-3.8447e-05
-1.45927e-05
-4.11579e-05
-2.46358e-05
-2.76207e-05
-2.02379e-05
-4.58289e-05
-2.79421e-05
-2.9252e-05
-3.52282e-05
-2.14282e-05
-4.18455e-05
6.15619e-07
-4.51047e-05
1.66201e-06
-4.88136e-05
1.29312e-05
-3.09203e-05
-8.0406e-06
-4.12323e-05
2.05208e-05
-3.60801e-05
1.47999e-06
-1.53987e-05
2.37805e-05
1.57991e-06
5.86327e-06
3.11708e-06
-8.25892e-06
7.9425e-06
-4.42671e-05
4.69744e-06
-8.12453e-05
1.7107e-05
-8.61343e-05
1.23649e-05
-4.53871e-05
3.52466e-06
-3.84849e-05
5.81612e-06
-3.81029e-05
-6.47682e-05
2.38661e-05
-8.9455e-06
-1.93452e-05
-1.79341e-05
-2.94583e-05
-1.84778e-05
-4.06142e-05
-2.22909e-05
-2.38076e-05
-2.81719e-05
-3.99479e-05
-2.76076e-05
-2.98163e-05
-3.30871e-05
-1.59487e-05
-3.16006e-05
-8.70897e-07
-3.65656e-05
6.62699e-06
-2.72949e-05
3.66044e-06
-2.87243e-05
-6.61111e-06
-3.58816e-05
2.76781e-05
-3.23693e-05
-2.03227e-06
-1.56033e-05
7.01446e-06
-3.57764e-06
-6.16242e-06
1.78808e-06
-1.36246e-05
-2.03057e-07
-4.22759e-05
-1.90413e-05
-6.24071e-05
-4.32357e-05
-6.19399e-05
-5.13042e-05
-3.73186e-05
-2.13528e-05
-6.84364e-05
-1.2396e-05
-4.70597e-05
-7.49435e-05
-2.22068e-06
-7.41427e-06
-1.19309e-05
-1.39365e-05
-2.29361e-05
-1.31366e-05
-4.1414e-05
-1.64235e-05
-2.05207e-05
-2.28639e-05
-3.35075e-05
-2.5336e-05
-2.73441e-05
-2.04279e-05
-2.08568e-05
-2.88975e-05
7.59868e-06
-3.06301e-05
8.35957e-06
-3.54467e-05
8.47709e-06
-4.78218e-05
5.76396e-06
-2.94297e-05
9.28597e-06
-3.96737e-05
8.2117e-06
-2.8345e-05
-4.31423e-06
-2.88821e-05
-5.62529e-06
-3.36737e-05
-8.833e-06
-4.01775e-05
-3.57722e-05
-5.50627e-05
-4.75219e-05
-9.60465e-05
-2.09561e-05
-6.48641e-05
-6.85011e-05
-0.000104936
-2.83646e-05
-0.000120224
-3.17711e-05
-4.87932e-05
-0.000146375
-6.04531e-06
-5.88557e-06
-7.48185e-06
-2.14996e-05
-6.12591e-06
-4.277e-05
-1.47366e-05
-1.191e-05
-1.84626e-05
-2.97816e-05
-1.93265e-05
-2.64802e-05
-2.37446e-05
-1.64387e-05
-2.69998e-05
1.08539e-05
-3.52396e-05
1.65994e-05
-2.78479e-05
1.08536e-06
-4.41275e-05
2.20436e-05
-4.23926e-05
7.5511e-06
-4.55339e-05
1.1353e-05
-3.97671e-05
-1.0081e-05
-3.95645e-05
-5.82794e-06
-3.25274e-05
-1.58701e-05
-5.71701e-05
-1.11295e-05
-7.68616e-05
-2.78304e-05
-6.08318e-05
-3.6986e-05
-0.000116723
-1.26099e-05
-0.000139805
-5.28306e-06
-0.000144462
-2.71136e-05
4.94119e-05
-0.000242667
-9.87741e-06
3.99184e-06
-4.68428e-06
-2.66927e-05
-8.96619e-06
-3.84881e-05
-1.40726e-05
-6.80355e-06
-1.38083e-05
-3.00459e-05
-2.75242e-05
-1.27643e-05
-3.49119e-05
-9.05109e-06
-3.85601e-05
1.45021e-05
-2.60647e-05
4.10396e-06
-3.78014e-05
1.2822e-05
-3.33657e-05
1.76079e-05
-4.35931e-05
1.77785e-05
-5.01893e-05
1.79492e-05
-5.50575e-05
-5.2128e-06
-5.17126e-05
-9.17287e-06
-4.46308e-05
-2.29518e-05
-4.22538e-05
-1.35066e-05
-5.20991e-05
-1.79851e-05
-5.83292e-05
-3.07558e-05
-5.63331e-05
-1.4606e-05
-5.84117e-05
-3.20456e-06
-0.000117464
3.19384e-05
8.71933e-05
-0.000155244
5.80183e-06
-1.80999e-06
6.82047e-07
-2.15729e-05
-1.8724e-05
-1.9082e-05
-1.47709e-05
-1.07566e-05
-3.23628e-05
-1.24541e-05
-2.58596e-05
-1.92674e-05
-3.8433e-05
3.52228e-06
-2.2754e-05
-1.17689e-06
-2.47275e-05
6.07744e-06
-1.92969e-05
7.39151e-06
-1.95114e-05
1.78224e-05
-2.07673e-05
1.90344e-05
-2.41033e-05
2.12852e-05
-2.4279e-05
-5.03713e-06
-4.42978e-05
1.08459e-05
-3.63302e-05
-3.09195e-05
-3.87217e-05
-1.11151e-05
-5.37172e-05
-2.98958e-06
-6.28349e-05
-2.16382e-05
-7.10782e-05
-6.36276e-06
-7.70459e-05
2.76311e-06
-8.15999e-05
3.64923e-05
6.31366e-05
-5.7543e-05
-1.81769e-06
7.70395e-09
-3.24187e-06
-2.01487e-05
-8.42554e-06
-1.38983e-05
-1.34274e-05
-5.75481e-06
-1.85743e-05
-7.30712e-06
-3.15715e-05
-6.27023e-06
-2.56496e-05
-2.39958e-06
-3.81667e-05
1.13402e-05
-3.69264e-05
4.83707e-06
-3.34767e-05
3.94183e-06
-3.03773e-05
1.4723e-05
-3.23807e-05
2.10378e-05
-1.91473e-05
8.05173e-06
-2.47721e-05
5.87708e-07
-1.89043e-05
4.97813e-06
-4.17108e-05
-8.11292e-06
-4.30243e-05
-9.80162e-06
-3.19175e-05
-1.40964e-05
-4.77765e-05
-5.77916e-06
-4.20619e-05
-1.20773e-05
-4.42123e-05
4.91341e-06
-4.14544e-05
3.37345e-05
4.58403e-05
-2.41579e-05
-1.93913e-06
1.94684e-06
-4.64728e-06
-1.74406e-05
-1.00132e-05
-8.53238e-06
-1.02741e-05
-5.49391e-06
-1.43767e-05
-3.20458e-06
-1.83022e-05
-2.34472e-06
-3.06423e-05
9.94054e-06
-3.12624e-05
1.19603e-05
-3.66268e-05
1.02015e-05
-3.57192e-05
3.03424e-06
-3.49077e-05
1.39115e-05
-2.91214e-05
1.52515e-05
-3.39934e-05
1.29237e-05
-3.43253e-05
9.19651e-07
-2.09616e-05
-8.38555e-06
-3.79446e-05
8.87009e-06
-2.42171e-05
-2.35292e-05
-3.18115e-05
-6.50207e-06
-2.33427e-05
-1.4248e-05
-1.4322e-05
-2.1098e-05
-2.07501e-05
1.13415e-05
-6.32362e-06
1.9308e-05
4.39518e-05
-4.43504e-06
-4.85969e-07
2.43281e-06
-5.16216e-06
-1.27644e-05
-8.51694e-06
-5.1776e-06
-8.58527e-06
-5.42559e-06
-8.30807e-06
-3.48178e-06
-1.21013e-05
1.44849e-06
-1.59949e-05
1.38341e-05
-2.12533e-05
1.72187e-05
-1.84134e-05
7.36162e-06
-2.11949e-05
5.81575e-06
-1.89296e-05
1.16462e-05
-3.33242e-05
2.96461e-05
-2.50494e-05
4.64884e-06
-3.24834e-05
8.35367e-06
-2.2582e-05
-1.82869e-05
-1.30632e-05
-6.48711e-07
-2.35462e-05
-1.30462e-05
-2.11261e-05
-8.9222e-06
-9.28384e-06
-2.60902e-05
-9.91041e-06
-2.04714e-05
-9.31053e-07
2.36212e-06
-4.87175e-07
1.88641e-05
4.30181e-05
4.46597e-07
-9.2622e-06
1.1695e-05
-4.83304e-06
-1.71936e-05
-2.87051e-06
-7.14012e-06
-6.01792e-06
-2.27817e-06
-8.65883e-06
-8.40872e-07
-9.63726e-06
2.42693e-06
-1.10155e-05
1.52123e-05
-2.07592e-05
2.69625e-05
-1.68457e-05
3.44814e-06
-1.47858e-05
3.7558e-06
-2.12906e-05
1.8151e-05
-8.50141e-06
1.68569e-05
-1.96617e-05
1.58091e-05
-2.3126e-05
1.18179e-05
-2.82284e-05
-1.31845e-05
-1.75523e-05
-1.13248e-05
-2.24178e-05
-8.18073e-06
-5.1174e-06
-2.62226e-05
-2.31521e-06
-2.88924e-05
5.78706e-07
-2.33653e-05
6.80845e-06
-3.86762e-06
1.44058e-05
1.12667e-05
4.1469e-05
1.59549e-05
-5.35898e-06
1.7054e-05
-8.01921e-06
-1.45333e-05
-6.35646e-06
-8.80288e-06
-9.36552e-06
7.30889e-07
-6.2222e-06
-3.98418e-06
-1.57403e-05
1.1945e-05
-1.76845e-05
1.71565e-05
-7.56152e-06
1.68395e-05
-1.53749e-05
1.12615e-05
-9.76191e-06
-1.85722e-06
-8.10227e-06
1.64914e-05
-2.45508e-05
3.33054e-05
-1.92393e-05
1.04977e-05
-1.38716e-05
6.45023e-06
-1.7102e-05
-9.95414e-06
-1.43362e-05
-1.40906e-05
-5.84917e-06
-1.66677e-05
-5.57167e-06
-2.65001e-05
-4.06898e-07
-3.40572e-05
5.54122e-06
-2.93135e-05
9.04885e-06
-7.37525e-06
2.54049e-06
1.77751e-05
4.20308e-05
1.97871e-06
-4.29969e-06
2.13537e-05
-3.52152e-06
-1.53115e-05
-6.71838e-06
-5.60601e-06
-6.53908e-06
5.5159e-07
-7.61297e-06
-2.9103e-06
-3.84879e-06
8.18085e-06
-2.24577e-06
1.55535e-05
-1.33424e-05
2.79361e-05
-1.02079e-05
8.12712e-06
-1.0542e-05
-1.52321e-06
-1.64946e-05
2.2444e-05
-6.28667e-06
2.30975e-05
-8.59734e-06
1.28084e-05
-1.05973e-05
8.45019e-06
-7.3253e-06
-1.32261e-05
-1.10679e-05
-1.03481e-05
-6.18877e-06
-2.15468e-05
-3.00911e-06
-2.96797e-05
1.68334e-06
-3.87496e-05
3.10397e-06
-3.07341e-05
6.74974e-06
-1.1021e-05
7.42411e-06
1.71007e-05
3.01984e-05
1.92565e-05
-4.4428e-07
2.1798e-05
-2.9918e-06
-1.2764e-05
-8.25084e-06
-3.46965e-07
-2.78191e-06
-4.91733e-06
-5.21954e-06
-4.72666e-07
-4.1275e-06
7.08882e-06
-5.94489e-06
1.73708e-05
3.67628e-06
1.83149e-05
-5.13856e-07
1.23173e-05
3.27702e-06
-5.31409e-06
8.44492e-06
1.72761e-05
-5.90599e-06
3.74484e-05
-9.9255e-06
1.68279e-05
-3.69857e-06
2.22326e-06
-5.16546e-06
-1.17593e-05
-1.51424e-06
-1.39993e-05
3.79264e-07
-2.34403e-05
2.22606e-06
-3.15265e-05
1.82569e-06
-3.83493e-05
3.35103e-06
-3.22594e-05
4.12378e-07
-8.08237e-06
4.31423e-06
1.31989e-05
2.40799e-05
1.04327e-05
-9.02446e-06
3.08224e-05
-9.12334e-06
-1.26651e-05
-4.43805e-06
-5.03225e-06
-5.94059e-06
-3.41479e-06
-3.56848e-06
-2.84477e-06
-2.97528e-06
6.49562e-06
4.75216e-06
9.64339e-06
7.57235e-06
1.54947e-05
7.08002e-06
1.28096e-05
2.81867e-06
-1.05274e-06
1.14313e-06
1.89516e-05
1.13426e-05
2.7249e-05
1.16426e-05
1.65279e-05
6.47632e-06
7.38955e-06
3.49189e-06
-8.77484e-06
4.70942e-06
-1.52168e-05
4.82231e-06
-2.35532e-05
5.55665e-06
-3.22609e-05
5.51652e-06
-3.83091e-05
2.18708e-06
-2.893e-05
4.37885e-06
-1.02742e-05
1.03182e-05
7.25952e-06
8.7865e-06
2.56116e-05
1.15638e-05
1.92586e-05
1.96122e-06
-3.06249e-06
-2.44482e-06
-6.26217e-07
-2.94825e-06
-2.91136e-06
-7.44883e-06
1.65582e-06
-3.15999e-06
2.20678e-06
2.66409e-07
6.21699e-06
7.91012e-06
7.85101e-06
5.24086e-06
1.54789e-05
5.56172e-06
-1.3736e-06
1.17414e-05
1.27719e-05
-1.49425e-07
3.91398e-05
8.54774e-06
7.8307e-06
5.68901e-06
1.02483e-05
4.63298e-06
-7.7188e-06
6.79878e-06
-1.73826e-05
6.88918e-06
-2.36436e-05
5.65987e-06
-3.10316e-05
6.25431e-06
-3.89036e-05
6.14144e-06
-2.88171e-05
5.54118e-06
-9.67388e-06
1.51141e-05
-2.31343e-06
8.33042e-06
1.55702e-05
7.93393e-06
1.13247e-05
4.19197e-06
6.79477e-07
3.19651e-06
3.69237e-07
9.72432e-07
-6.87276e-07
9.26892e-08
2.53556e-06
1.43738e-06
8.62089e-07
2.75066e-06
4.9037e-06
5.84484e-06
4.75683e-06
1.30736e-05
8.25007e-06
8.57786e-06
3.12216e-06
1.43973e-06
1.99101e-05
1.97614e-05
2.08181e-05
1.69023e-05
1.06898e-05
2.17788e-05
5.37176e-06
1.99707e-05
-5.91068e-06
1.25853e-05
-9.99717e-06
1.53454e-05
-2.64037e-05
1.43979e-05
-3.00841e-05
1.09733e-05
-3.5479e-05
-5.21713e-07
-1.73221e-05
1.61993e-06
-1.18155e-05
5.83211e-06
-6.52561e-06
4.95485e-06
9.20769e-06
1.53972e-06
9.78498e-06
7.24844e-07
1.49435e-06
9.58061e-07
1.36022e-07
1.82449e-07
8.83382e-08
3.8551e-07
2.3325e-06
2.2264e-07
1.02496e-06
1.68476e-06
3.44158e-06
2.73377e-06
3.70782e-06
4.4817e-06
6.50214e-06
2.85616e-06
4.7477e-06
7.52063e-06
1.52456e-05
1.93813e-05
8.95738e-06
1.39191e-05
1.61521e-05
1.65317e-05
2.75913e-06
1.82319e-05
-7.61082e-06
1.44703e-05
-6.23564e-06
1.48299e-05
-2.67633e-05
1.56878e-05
-3.0942e-05
1.15561e-05
-3.13473e-05
1.00773e-05
-1.58433e-05
1.16472e-05
-1.33854e-05
1.46849e-05
-9.56334e-06
-1.39944e-07
1.97797e-05
2.14286e-06
7.64212e-06
3.533e-06
1.0421e-07
3.78873e-06
-1.19704e-07
4.31442e-06
-4.37348e-07
4.70341e-06
1.94351e-06
5.69743e-06
3.09465e-08
6.592e-06
2.547e-06
8.16637e-06
2.13345e-06
1.04375e-05
4.23098e-06
1.16036e-05
3.5816e-06
1.51395e-05
1.17097e-05
1.85631e-05
5.53376e-06
2.27242e-05
1.1991e-05
2.10494e-05
4.43395e-06
2.32902e-05
-9.85167e-06
1.61658e-05
8.88781e-07
1.69053e-05
-2.75027e-05
1.28595e-05
-2.68962e-05
1.04288e-05
-2.89167e-05
1.0045e-05
-1.54594e-05
1.45761e-05
-1.79166e-05
1.91937e-05
-1.41809e-05
-2.43524e-06
2.1489e-05
1.15808e-06
6.48404e-06
1.88071e-06
-6.18422e-07
2.59597e-06
-8.34965e-07
3.32595e-06
-1.16733e-06
4.46352e-06
8.05943e-07
5.28244e-06
-7.87971e-07
6.57347e-06
1.25597e-06
8.05918e-06
6.4774e-07
9.58891e-06
2.70125e-06
1.12648e-05
1.90569e-06
1.43256e-05
8.64893e-06
1.69447e-05
2.91463e-06
1.95724e-05
9.36328e-06
2.17069e-05
2.29945e-06
1.5004e-05
-3.14875e-06
1.64306e-05
-5.37835e-07
1.92386e-05
-3.03107e-05
2.27393e-05
-3.03969e-05
1.93242e-05
-2.55015e-05
1.90051e-05
-1.51403e-05
2.46267e-05
-2.35382e-05
2.75093e-05
-1.70635e-05
-5.92056e-06
3.09946e-05
1.45284e-06
5.03121e-06
1.95443e-06
-1.12001e-06
3.09442e-06
-1.97496e-06
3.96254e-06
-2.03545e-06
6.88264e-06
-2.11416e-06
7.91188e-06
-1.81721e-06
9.70899e-06
-5.41135e-07
1.10457e-05
-6.88998e-07
1.26521e-05
1.09489e-06
1.4113e-05
4.44815e-07
1.72052e-05
5.55669e-06
1.89916e-05
1.12821e-06
2.26108e-05
5.74412e-06
2.61268e-05
-1.2166e-06
2.02908e-05
2.68731e-06
3.82587e-05
-1.85058e-05
2.20233e-05
-1.40752e-05
3.12653e-05
-3.96389e-05
2.50723e-05
-1.93085e-05
3.14868e-05
-2.15548e-05
2.74711e-05
-1.95226e-05
3.1689e-05
-2.12813e-05
-5.24572e-06
3.10142e-05
1.73733e-06
3.29388e-06
3.1846e-06
-2.56727e-06
4.62384e-06
-3.41419e-06
5.94405e-06
-3.35566e-06
7.27992e-06
-3.45003e-06
8.44321e-06
-2.9805e-06
9.74566e-06
-1.84359e-06
1.11486e-05
-2.09192e-06
1.29503e-05
-7.06877e-07
1.45364e-05
-1.14122e-06
1.8114e-05
1.97903e-06
2.0164e-05
-9.21734e-07
2.26356e-05
3.27248e-06
2.65023e-05
-5.08329e-06
2.82662e-05
9.23403e-07
3.29275e-05
-2.31671e-05
2.60379e-05
-7.18561e-06
3.00328e-05
-4.36339e-05
2.29206e-05
-1.21963e-05
4.1872e-05
-4.05062e-05
3.32492e-05
-1.08997e-05
3.41878e-05
-2.22199e-05
-5.86543e-06
3.48075e-05
2.27103e-06
1.02285e-06
4.32884e-06
-4.62508e-06
6.01751e-06
-5.10287e-06
7.70129e-06
-5.03944e-06
9.00784e-06
-4.75657e-06
1.07168e-05
-4.6895e-06
1.25586e-05
-3.68536e-06
1.41809e-05
-3.71419e-06
1.60187e-05
-2.54465e-06
1.72257e-05
-2.34825e-06
1.99134e-05
-7.08698e-07
2.13063e-05
-2.31467e-06
2.38404e-05
7.38413e-07
2.64035e-05
-7.64637e-06
3.36129e-05
-6.28601e-06
2.41244e-05
-1.36786e-05
4.32218e-05
-2.6283e-05
2.22839e-05
-2.2696e-05
3.34092e-05
-2.33216e-05
2.54345e-05
-3.25315e-05
4.63192e-05
-3.17845e-05
4.15073e-05
-1.7408e-05
-1.29152e-05
4.85571e-05
2.15891e-06
-1.13606e-06
3.75519e-06
-6.22135e-06
5.22395e-06
-6.57163e-06
6.73007e-06
-6.54555e-06
8.35047e-06
-6.37698e-06
9.87571e-06
-6.21474e-06
1.15298e-05
-5.3395e-06
1.30325e-05
-5.21683e-06
1.48712e-05
-4.38342e-06
1.59453e-05
-3.42234e-06
1.79809e-05
-2.74425e-06
1.82227e-05
-2.55651e-06
1.9968e-05
-1.0069e-06
1.65341e-05
-4.21243e-06
2.05093e-05
-1.02613e-05
2.09427e-05
-1.41119e-05
3.26545e-05
-3.79949e-05
3.21981e-05
-2.22396e-05
2.47237e-05
-1.58472e-05
3.05795e-05
-3.83873e-05
3.20217e-05
-3.32267e-05
3.84882e-05
-2.38744e-05
-1.43168e-05
3.98897e-05
2.3881e-06
-3.52416e-06
4.14305e-06
-7.97631e-06
5.65762e-06
-8.08619e-06
7.28235e-06
-8.17028e-06
8.84051e-06
-7.93514e-06
1.04383e-05
-7.81254e-06
1.20469e-05
-6.94805e-06
1.36109e-05
-6.7809e-06
1.54182e-05
-6.19066e-06
1.69329e-05
-4.93706e-06
1.90312e-05
-4.84254e-06
1.97763e-05
-3.30162e-06
2.30148e-05
-4.24541e-06
2.08528e-05
-2.05042e-06
2.41158e-05
-1.35243e-05
3.8057e-05
-2.80531e-05
3.64941e-05
-3.6432e-05
3.08084e-05
-1.65539e-05
3.14974e-05
-1.65361e-05
4.75646e-05
-5.44545e-05
4.81162e-05
-3.37783e-05
4.31726e-05
-1.89308e-05
-1.79472e-05
4.68031e-05
1.98741e-06
-5.51157e-06
3.46639e-06
-9.45528e-06
4.90483e-06
-9.52463e-06
6.41513e-06
-9.68058e-06
7.9952e-06
-9.51521e-06
9.76584e-06
-9.58318e-06
1.16182e-05
-8.80043e-06
1.34257e-05
-8.58837e-06
1.52316e-05
-7.99658e-06
1.76326e-05
-7.33809e-06
2.00537e-05
-7.2636e-06
2.29433e-05
-6.19122e-06
2.67504e-05
-8.05246e-06
3.27161e-05
-8.01614e-06
3.28532e-05
-1.36613e-05
3.53827e-05
-3.05827e-05
2.59776e-05
-2.70269e-05
4.88034e-05
-3.93797e-05
5.43718e-05
-2.21046e-05
3.22005e-05
-3.22831e-05
4.92855e-05
-5.08633e-05
4.12121e-05
-1.08575e-05
-4.51791e-05
6.8444e-05
1.98551e-06
-7.49708e-06
3.38184e-06
-1.08516e-05
4.79624e-06
-1.0939e-05
6.2609e-06
-1.11452e-05
7.65956e-06
-1.09139e-05
9.22751e-06
-1.11511e-05
1.0762e-05
-1.03349e-05
1.25489e-05
-1.03753e-05
1.35845e-05
-9.03215e-06
1.58969e-05
-9.65049e-06
1.63224e-05
-7.68912e-06
1.98932e-05
-9.76204e-06
1.60608e-05
-4.22008e-06
1.87901e-05
-1.07454e-05
2.24987e-05
-1.737e-05
2.35883e-05
-3.16722e-05
3.91089e-05
-4.25475e-05
4.15208e-05
-4.17916e-05
4.64109e-05
-2.69947e-05
3.72566e-05
-2.31288e-05
4.93797e-05
-6.29864e-05
5.50616e-05
-1.65393e-05
-4.88426e-05
5.8725e-05
1.68412e-06
-9.1812e-06
2.8081e-06
-1.19756e-05
4.03547e-06
-1.21664e-05
5.25433e-06
-1.23641e-05
6.56788e-06
-1.22274e-05
8.05836e-06
-1.26416e-05
9.82013e-06
-1.20967e-05
1.18362e-05
-1.23913e-05
1.35268e-05
-1.07228e-05
1.55628e-05
-1.16864e-05
1.68861e-05
-9.01244e-06
2.02077e-05
-1.30837e-05
1.74127e-05
-1.42501e-06
1.95574e-05
-1.28902e-05
3.00731e-05
-2.78857e-05
3.30661e-05
-3.46651e-05
3.41677e-05
-4.36491e-05
2.40862e-05
-3.17101e-05
4.71043e-05
-5.00128e-05
3.57522e-05
-1.17767e-05
3.42572e-05
-6.14913e-05
3.84541e-05
-2.07362e-05
-6.46646e-05
5.42762e-05
1.67261e-06
-1.08538e-05
2.93622e-06
-1.32392e-05
4.23498e-06
-1.34652e-05
5.4531e-06
-1.35822e-05
6.78376e-06
-1.35581e-05
8.0624e-06
-1.39203e-05
9.74616e-06
-1.37805e-05
1.13498e-05
-1.39949e-05
1.38049e-05
-1.31779e-05
1.58561e-05
-1.37377e-05
1.84453e-05
-1.16017e-05
1.76723e-05
-1.23106e-05
1.89601e-05
-2.71286e-06
3.10327e-05
-2.49628e-05
3.13844e-05
-2.82374e-05
3.47172e-05
-3.79979e-05
2.30865e-05
-3.20184e-05
2.86058e-05
-3.72294e-05
3.07939e-05
-5.22008e-05
4.99922e-05
-3.0975e-05
2.56357e-05
-3.71348e-05
6.15401e-05
-5.66406e-05
-4.34891e-05
4.03646e-05
1.40821e-06
-1.2262e-05
2.48845e-06
-1.43194e-05
3.61058e-06
-1.45873e-05
4.6027e-06
-1.45743e-05
5.84943e-06
-1.48048e-05
6.82766e-06
-1.48985e-05
8.12398e-06
-1.50768e-05
9.43229e-06
-1.53032e-05
1.12104e-05
-1.4956e-05
1.22515e-05
-1.47787e-05
1.40006e-05
-1.33508e-05
1.34276e-05
-1.17376e-05
1.61748e-05
-5.46002e-06
2.79138e-05
-3.67018e-05
2.69875e-05
-2.73111e-05
1.91871e-05
-3.01975e-05
2.04049e-05
-3.32362e-05
2.19677e-05
-3.87923e-05
2.87772e-05