/*--------------------------------*- C++ -*----------------------------------*\
| =========                 |                                                 |
| \\      /  F ield         | foam-extend: Open Source CFD                    |
|  \\    /   O peration     | Version:     4.1                                |
|   \\  /    A nd           | Web:         http://www.foam-extend.org         |
|    \\/     M anipulation  |                                                 |
\*---------------------------------------------------------------------------*/
FoamFile
{
    version     2.0;
    format      ascii;
    class       volScalarField;
    location    "0.45";
    object      psi;
}
// * * * * * * * * * * * * * * * * * * * * * * * * * * * * * * * * * * * * * //

dimensions      [1 -1 -2 0 0 0 0];

internalField   nonuniform List<scalar> 
2268
(
0.0121537
0.0133351
0.014379
0.0151921
0.0155234
0.0146365
0.0163681
0.0261155
0.0400186
0.0414063
0.0247855
0.0223218
0.0170321
0.0152878
0.0144467
0.012354
0.0109687
0.0100609
0.00949861
0.0090098
0.00793905
0.00408926
-0.00667404
0.0242574
0.0257626
0.0260055
0.0279597
0.0277719
0.0275848
0.0327486
0.047404
0.0638857
0.042077
0.022554
0.0200999
0.0173969
0.0180525
0.017865
0.0151581
0.0127545
0.0111026
0.0102665
0.0101345
0.00889769
0.00479488
-0.00654761
0.0441131
0.0451415
0.0408232
0.0473779
0.0444748
0.0491447
0.0624193
0.0831582
0.0863558
0.003481
-0.0031007
-0.00285261
0.00834209
0.0161303
0.0192249
0.0165709
0.0138183
0.0104996
0.00971074
0.0109762
0.0117204
0.00678681
-0.00588981
0.0673306
0.0660154
0.0515902
0.0686996
0.0596185
0.0779191
0.101325
0.131364
0.0676734
-0.055977
-0.0517531
-0.0366319
-0.0066288
0.00944633
0.0165515
0.0152734
0.0118748
0.007164
0.007783
0.0117776
0.0161674
0.00963884
-0.00404944
0.081086
0.0726506
0.0394635
0.0799112
0.0582418
0.106718
0.141819
0.158534
-0.058825
-0.145675
-0.133853
-0.090953
-0.0402147
-0.0130569
5.1674e-05
0.00570288
0.00403473
-0.000854644
0.0019223
0.0111277
0.0207209
0.0157819
0.000255194
0.0632358
0.0410258
-0.0201024
0.0647468
0.0213886
0.122545
0.177147
0.0669943
-0.244442
-0.262629
-0.262343
-0.18048
-0.108682
-0.0643044
-0.0443074
-0.0221161
-0.0153422
-0.0177586
-0.0135476
0.005535
0.0226696
0.0260469
0.00699347
-0.0197751
-0.0578904
-0.150504
0.00716308
-0.067051
0.11366
0.169597
-0.245462
-0.470546
-0.429573
-0.405224
-0.311887
-0.228093
-0.159458
-0.138885
-0.0860349
-0.054803
-0.0497903
-0.0446147
-0.0152685
0.0119883
0.0397121
0.0104815
-0.27329
-0.316774
-0.428531
-0.192634
-0.296538
-0.0717167
-0.136894
-0.633919
-0.75486
-0.710276
-0.639306
-0.54997
-0.459662
-0.363437
-0.343942
-0.232681
-0.140794
-0.118307
-0.10942
-0.0635325
-0.0237104
0.0351204
-0.00309073
1.29256
1.75288
2.3743
2.93464
3.41271
3.58378
3.66668
3.5187
3.48112
3.56329
3.68657
3.79123
4.07282
4.27586
4.0258
3.46371
2.92935
2.38344
1.8521
1.26055
1.26762
0.513219
0.264527
0.199303
1.07484
1.51756
2.17929
2.39354
2.58083
2.74939
2.69343
2.29735
2.45526
2.76996
3.72031
3.78228
3.0778
2.67205
1.179
0.639595
-0.215205
-0.29507
-0.30299
0.175039
0.55261
1.55642
1.8008
1.9223
2.01409
2.23588
2.05217
2.18164
2.40373
3.41727
3.96893
3.34175
2.64882
1.12721
0.82807
0.336862
-0.126925
-0.372775
-0.36414
-0.333527
0.545399
1.21171
1.31551
1.19143
1.6724
2.04518
2.26216
2.18463
2.65254
1.77654
3.28029
2.74148
1.27279
1.18097
0.581387
-0.0234762
-0.208782
-0.0931033
-0.090812
-0.0412335
0.670081
0.916906
0.416414
0.790938
1.76017
2.06876
2.11197
2.49477
0.365048
2.41957
2.96335
1.55332
0.760565
-0.642325
-0.41126
0.581021
0.881446
0.621081
0.0457771
0.400538
0.646412
0.0793621
0.371448
1.54908
1.66269
2.39461
2.42595
0.628003
1.78939
3.28703
-0.682012
-1.79617
-2.06856
-0.155202
1.92507
2.14547
1.18495
0.234905
0.350666
0.468721
0.015641
0.212407
1.45073
1.41063
2.2725
2.3388
0.957494
1.04445
3.49122
-5.69021
-5.14792
-0.882838
2.54596
3.23353
1.94289
1.49459
0.538972
0.3992
0.403577
0.0552266
0.135225
1.38715
1.32636
1.76791
2.26794
1.1865
0.957385
3.6307
-1.08258
-1.09861
-1.16373
-0.964727
-1.00172
-1.34062
-1.13016
-1.3939
-1.36644
-1.35163
-1.26876
-1.22205
-1.13235
-1.0055
-0.915775
-0.66219
-0.385208
-0.313367
-0.28435
-0.220921
-0.144509
-0.0581024
-0.0895857
0.150464
0.200488
0.420315
0.0333719
0.746881
0.28247
0.758414
0.615585
0.636795
0.469399
0.173068
-0.150675
-0.437943
-0.624244
-0.831177
-0.782558
-0.507485
-0.556458
-0.4915
-0.341462
-0.28756
-0.221273
-0.106748
0.635379
0.656447
0.728512
0.291926
0.702809
0.466974
0.529426
0.393534
0.472643
0.487273
0.480884
0.625795
0.637558
0.504921
0.00945914
-0.571395
-0.704179
-0.884897
-0.670848
-0.41993
-0.583646
-0.572787
-0.236928
0.376191
0.391399
0.403778
0.301702
0.401535
0.297599
0.290166
0.235168
0.304074
0.389764
0.567702
0.636018
0.667526
0.961069
1.12068
0.918478
0.662134
-0.166707
-0.687106
-0.7778
-1.19841
-1.55081
-0.881085
0.187581
0.190817
0.189379
0.170522
0.179814
0.14142
0.137958
0.118644
0.15591
0.212373
0.310539
0.330773
0.275852
0.508214
0.713088
0.840344
0.589607
0.421331
0.552268
-0.156607
-0.236513
-0.530274
-0.885008
0.0746457
0.0744534
0.0709135
0.0638097
0.0633866
0.0479936
0.049364
0.0452734
0.0627085
0.0832554
0.132098
0.139362
0.0921062
0.272985
0.231106
0.426414
0.404842
0.486031
0.94766
1.30044
3.32666
0.906277
0.528422
0.0207594
0.020479
0.0180343
0.0145732
0.0141904
0.00831493
0.0106008
0.0116307
0.0173089
0.0251144
0.042595
0.0414002
0.0345022
0.101162
0.0494691
0.0563691
0.0689964
-0.00465715
0.219777
-0.0443768
0.7709
0.276273
0.411338
0.00201075
0.00115135
-0.000140283
-0.000628407
-0.00118536
-0.00236578
-0.00228901
-0.00202641
-0.00319881
-0.00264613
-0.000862638
-0.00310759
-0.00404429
0.0120634
0.0100422
0.000811032
0.0151692
0.00180891
0.1016
0.0284293
0.0283054
-0.0250128
-0.0310258
-0.00298308
-0.00357719
-0.0038447
-0.00356373
-0.00335558
-0.00322178
-0.00435368
-0.00650874
-0.00876936
-0.0096662
-0.0110065
-0.0104521
-0.00990326
-0.0035248
-0.00679085
-0.0038064
0.00530009
0.00958163
0.0420611
0.0458583
-0.0638496
-0.0906024
-0.0876635
-0.00370172
-0.00364115
-0.00346674
-0.00342266
-0.00299309
-0.00269655
-0.00415283
-0.00679806
-0.00898657
-0.0098342
-0.0102042
-0.0101608
-0.00979048
-0.0079941
-0.00708201
-0.0021804
0.000926123
0.0026096
0.005063
-0.00289704
-0.0404922
-0.044542
-0.0201155
-0.00354972
-0.00285338
-0.00198015
-0.00209746
-0.00110897
-0.000831552
-0.00222127
-0.00534942
-0.00737089
-0.00802532
-0.00824373
-0.00871728
-0.00819015
-0.00672987
-0.00490131
-0.00241336
-0.00258961
-0.00405011
-0.00818449
-0.0166055
-0.0230685
-0.00646778
0.00917478
-0.00183406
-0.00110224
-0.000442911
-0.000750222
-0.000214558
-7.0039e-05
-0.00118321
-0.00376087
-0.00509485
-0.00533358
-0.00582934
-0.00590672
-0.00542321
-0.00376432
-0.00343114
-0.00326438
-0.00378718
-0.00539419
-0.00768398
-0.00890362
-0.00817463
-0.00898349
-0.0114464
-0.000685789
-0.000215865
1.45296e-05
-0.0001654
5.53374e-05
5.98801e-05
-0.000646019
-0.00204888
-0.00256845
-0.00279851
-0.00343244
-0.00336228
-0.00295274
-0.00146875
-0.00128513
-0.00116681
-0.00166862
-0.00153345
-0.00138438
-0.00174395
-0.00155158
-0.00587424
-0.0120963
-0.00013613
4.08497e-06
4.9095e-05
4.59702e-06
7.30944e-05
0.000106184
-0.000131598
-0.000535875
-0.000705836
-0.000992829
-0.00150118
-0.00173656
-0.00177957
-0.000638716
-0.000289071
-0.000113706
-0.000311113
-0.000209139
5.21979e-05
0.000119941
0.00027955
-0.00140801
-0.00554712
2.52824e-05
3.42956e-05
3.13359e-05
2.37786e-05
5.1829e-05
8.28302e-05
7.22337e-05
2.07179e-06
-7.66965e-05
-0.000190737
-0.000477925
-0.00066038
-0.000708786
-0.000192918
-5.67475e-05
4.64998e-05
1.2501e-05
4.0325e-05
0.000102188
0.00014477
0.000293424
0.000410504
-0.000136945
2.60854e-05
1.9583e-05
1.54684e-05
1.46835e-05
2.26352e-05
4.22187e-05
6.71031e-05
6.61819e-05
5.83752e-05
2.82682e-05
-7.262e-05
-0.000141383
-0.000108606
3.76047e-06
2.48263e-05
3.03572e-05
2.60466e-05
2.76098e-05
3.2937e-05
3.18846e-05
5.12654e-05
0.000144832
0.000267349
6.81572e-06
2.64747e-06
3.01968e-06
3.59294e-06
4.48536e-06
1.2378e-05
2.97177e-05
4.02788e-05
4.26602e-05
4.13061e-05
2.17639e-05
9.10814e-07
6.29286e-06
1.73511e-05
1.46045e-05
1.18634e-05
9.22669e-06
5.78682e-06
2.40058e-06
-1.16458e-07
2.12968e-07
7.57247e-06
4.45701e-05
-5.68204e-08
-9.34526e-07
-4.20781e-07
-1.07231e-07
-5.55737e-07
7.9925e-07
7.88527e-06
1.57423e-05
1.30132e-05
1.46347e-05
1.5796e-05
1.09365e-05
1.30909e-05
7.66782e-06
3.77931e-06
2.02164e-06
7.99101e-07
-2.22235e-07
-9.1858e-07
-1.18468e-06
-1.72161e-06
-3.04089e-06
3.56298e-07
-5.70936e-07
-5.6148e-07
-4.05765e-07
-4.01071e-07
-7.7715e-07
-9.00338e-07
8.79027e-07
3.13695e-06
1.0857e-06
1.67829e-06
4.74339e-06
5.47797e-06
4.59056e-06
2.07973e-06
2.06218e-07
-2.41824e-07
-2.76638e-07
-2.8906e-07
-2.80749e-07
-2.73906e-07
-3.0872e-07
-6.24001e-07
-1.10025e-06
-2.47748e-07
-1.06438e-07
-1.11808e-07
-1.91071e-07
-3.62896e-07
-6.26746e-07
-5.79349e-07
-2.03904e-07
-7.00043e-07
-6.97095e-07
7.22864e-07
2.05763e-06
1.01539e-06
1.71579e-07
-2.32326e-07
-1.94379e-07
-1.18748e-07
-6.12244e-08
-1.79422e-08
-1.05863e-08
-2.49509e-08
-3.71189e-08
-1.36638e-07
-7.8099e-08
9.69447e-09
-4.02262e-09
-3.65862e-08
-9.22405e-08
-2.36361e-07
-3.58661e-07
-3.19215e-07
-4.31061e-07
-4.17502e-07
-2.02001e-07
1.81018e-07
-5.53366e-09
-1.1943e-07
-1.11521e-07
-5.53418e-08
-1.57369e-08
-1.32922e-10
5.54961e-09
5.26436e-09
-3.6037e-10
8.64125e-10
3.35127e-08
-1.4096e-08
1.12383e-08
9.67146e-09
5.21406e-09
-2.45762e-09
-5.2035e-08
-1.17851e-07
-1.45908e-07
-1.30339e-07
-9.05891e-08
-1.29944e-07
-4.37106e-08
-6.87117e-08
-6.22058e-08
-2.46928e-08
-3.34158e-09
2.94953e-09
2.54121e-09
1.04978e-09
-7.07423e-10
-2.22433e-09
4.08426e-09
4.41867e-08
-3.07944e-09
2.85198e-09
4.61401e-09
5.70607e-09
7.36575e-09
-3.93411e-10
-1.68888e-08
-3.49572e-08
-2.16195e-08
8.77166e-10
-3.46725e-08
-4.10193e-08
-3.01632e-08
-1.4909e-08
-2.44909e-10
2.84001e-09
1.835e-09
6.95104e-10
-8.11335e-10
-3.427e-09
-4.23174e-09
9.88972e-09
6.63657e-08
2.72285e-10
8.59785e-10
1.20978e-09
2.06218e-09
3.87651e-09
4.98419e-09
3.60545e-09
2.94822e-10
1.62697e-09
7.38726e-09
-3.21438e-09
-1.53128e-08
-6.3794e-09
-8.08955e-10
1.63652e-09
1.22898e-09
4.80625e-10
6.72178e-11
-1.05331e-09
-4.31212e-09
-5.51049e-09
1.72164e-08
1.05934e-07
2.86819e-10
1.34295e-10
7.04372e-11
2.81165e-10
9.31612e-10
1.76914e-09
2.38033e-09
2.22099e-09
2.3722e-09
3.18257e-09
1.60859e-09
-1.23058e-09
7.03047e-10
1.23837e-09
7.35864e-10
2.79099e-10
1.01802e-10
2.10556e-11
-9.12283e-10
-4.7475e-09
-1.08989e-08
-2.34019e-09
8.85226e-08
4.73456e-11
-3.37124e-11
-8.55738e-11
-8.90854e-11
7.16123e-12
2.02455e-10
4.89348e-10
5.61464e-10
5.33134e-10
6.16949e-10
8.22986e-10
6.59518e-10
6.57374e-10
4.06762e-10
9.94403e-11
2.6282e-11
8.44331e-11
5.14672e-11
-8.25114e-10
-4.33383e-09
-1.19614e-08
-1.34085e-08
6.82001e-08
-8.67883e-12
-2.45695e-11
-3.88837e-11
-5.536e-11
-6.67732e-11
-5.74445e-11
-7.50951e-12
1.29825e-11
-6.29469e-12
-2.0297e-11
9.4324e-11
1.43596e-10
1.20226e-10
3.17651e-11
-2.49853e-11
2.13134e-11
1.10819e-10
5.94143e-11
-6.77097e-10
-3.31298e-09
-1.04594e-08
-1.93472e-08
2.1274e-08
-4.73265e-12
-4.70452e-12
-5.79462e-12
-1.0473e-11
-1.98399e-11
-2.83309e-11
-2.91302e-11
-2.75243e-11
-3.3434e-11
-4.28219e-11
-2.86366e-11
-1.22745e-11
-1.05981e-11
-2.0545e-11
-1.06587e-11
6.95241e-11
1.4318e-10
-9.19069e-11
-1.09869e-09
-2.78365e-09
-6.48066e-09
-1.64595e-08
-6.45921e-09
-7.83988e-14
7.93933e-13
1.28411e-12
9.61149e-13
-5.89409e-13
-3.45272e-12
-5.75755e-12
-6.3913e-12
-7.30267e-12
-9.37742e-12
-1.03901e-11
-9.02211e-12
-9.82665e-12
-1.08973e-11
8.70201e-12
1.37365e-10
2.23437e-10
-4.04203e-10
-2.52023e-09
-3.10154e-09
-2.78946e-09
-9.28191e-11
8.65561e-09
5.31111e-13
7.82801e-13
8.68218e-13
1.06531e-12
9.89077e-13
7.2822e-13
3.56489e-13
3.25453e-13
3.12423e-13
3.43144e-13
-1.78109e-13
-1.29131e-12
-4.70434e-12
-6.17966e-12
3.36354e-11
2.25799e-10
3.28222e-10
-7.5866e-10
-5.35749e-09
-5.37549e-09
8.44434e-09
3.068e-08
7.78558e-08
-4.68005e-14
3.60422e-13
8.96265e-14
3.33711e-13
4.05955e-13
3.61233e-13
3.59203e-13
4.06252e-13
5.13692e-13
6.59064e-13
6.95394e-13
-8.7349e-13
-5.73825e-12
-1.97467e-12
9.1034e-11
3.53059e-10
2.96716e-10
-1.85816e-09
-1.02289e-08
-1.10496e-08
2.83148e-08
1.15934e-07
2.88695e-07
7.28515e-15
2.13496e-13
2.44297e-13
2.52307e-13
-6.0154e-14
-1.76763e-14
1.48658e-13
1.23588e-13
2.58368e-13
2.89359e-13
3.19518e-13
-1.78327e-12
-8.57797e-12
-2.59876e-12
1.46723e-10
5.08938e-10
4.3452e-10
-3.68305e-09
-1.88372e-08
-2.29149e-08
3.63627e-08
2.00628e-07
4.2489e-07
-4.27898e-14
1.91269e-13
4.13172e-16
6.7728e-14
8.73448e-14
9.94503e-14
2.28781e-13
1.33285e-13
2.20656e-13
3.33174e-13
6.84439e-14
-3.03935e-12
-1.19318e-11
-2.86601e-12
2.24153e-10
6.64792e-10
1.42396e-10
-7.47117e-09
-3.0478e-08
-3.34261e-08
1.35044e-07
4.29352e-07
5.74697e-07
1.78212e-13
7.61023e-14
4.06356e-14
-2.12414e-14
7.95593e-14
1.35254e-13
1.16693e-13
3.32908e-13
1.95312e-13
3.9699e-13
1.18454e-13
-4.47521e-12
-1.48727e-11
2.11621e-11
3.75947e-10
9.03788e-10
-1.65078e-10
-1.25686e-08
-4.53798e-08
-4.60779e-08
2.65151e-07
6.73564e-07
5.44397e-07
5.60804e-14
1.82031e-13
1.26456e-13
1.51255e-13
3.39215e-14
6.04374e-14
1.09944e-13
1.71901e-13
2.09733e-13
3.85613e-13
-3.31587e-14
-5.93311e-12
-1.8803e-11
3.03411e-11
4.74739e-10
1.21151e-09
-6.91742e-10
-2.10489e-08
-5.7512e-08
-4.50841e-08
5.2994e-07
9.15807e-07
-8.5041e-08
3.057e-14
2.70631e-13
2.00657e-13
1.01554e-13
1.70214e-13
2.21504e-13
7.0038e-14
3.22606e-13
2.32808e-13
4.84013e-13
-9.58831e-14
-7.12177e-12
-2.15225e-11
3.90507e-11
5.70421e-10
1.40357e-09
-2.53042e-09
-3.16156e-08
-5.74967e-08
8.52574e-11
7.94424e-07
1.4032e-06
-2.55593e-07
8.28435e-14
1.33257e-13
2.47686e-13
5.18046e-14
1.42563e-13
-3.14484e-14
9.87409e-14
2.9756e-13
1.99742e-13
5.02964e-13
-4.27716e-13
-8.53424e-12
-2.06768e-11
7.87291e-11
7.22418e-10
1.31782e-09
-5.85856e-09
-4.00712e-08
-5.56595e-08
1.36876e-07
1.25533e-06
2.03376e-06
-7.82269e-07
7.66799e-14
1.07119e-13
1.36391e-13
1.19807e-13
6.96012e-14
-9.21994e-15
1.65482e-13
2.90895e-13
2.26282e-13
4.425e-13
-6.31871e-13
-1.01325e-11
-2.37278e-11
1.05486e-10
8.84718e-10
1.45888e-09
-7.38995e-09
-4.81284e-08
-6.07913e-08
2.64331e-07
1.74645e-06
2.30784e-06
-2.86615e-06
3.53148e-14
1.13485e-13
1.07044e-13
1.81961e-13
1.2742e-13
2.06577e-13
-2.8067e-14
2.95082e-13
2.20304e-13
4.0538e-13
-9.77492e-13
-1.11728e-11
-1.61307e-11
1.71122e-10
9.68092e-10
8.21651e-10
-1.34443e-08
-5.88443e-08
-3.75616e-08
4.75532e-07
2.31341e-06
2.13948e-06
-4.79901e-06
2.89243e-14
4.58474e-14
7.23209e-14
2.41645e-15
2.03689e-13
1.9169e-13
1.76957e-13
2.94836e-13
5.00442e-13
5.84562e-13
-1.13656e-12
-1.2183e-11
-1.4331e-11
2.27931e-10
1.05284e-09
-2.41581e-10
-2.09926e-08
-6.56458e-08
3.39441e-08
8.27087e-07
3.15496e-06
2.21193e-06
-2.01458e-05
6.96639e-14
7.13918e-14
1.48178e-13
1.62734e-13
-1.72506e-14
8.03406e-14
1.49571e-13
2.09421e-13
6.25287e-13
6.07492e-13
-1.37447e-12
-1.29615e-11
-7.61945e-12
2.8127e-10
1.13912e-09
-1.21543e-09
-2.65692e-08
-7.02384e-08
1.03972e-07
1.13115e-06
3.90324e-06
3.57769e-06
-2.59065e-05
1.48567e-13
1.43997e-13
-5.22334e-15
5.58608e-14
-4.71665e-14
2.78193e-13
2.08191e-13
2.85802e-13
3.48217e-13
4.28526e-13
-1.54863e-12
-1.38164e-11
-1.44903e-11
2.72497e-10
1.19656e-09
-1.27383e-09
-2.92876e-08
-7.48309e-08
1.6614e-07
1.30625e-06
4.12113e-06
4.24996e-06
-2.69966e-05
0.25644
1.90582
4.48164
5.28965
0.00369654
0.545063
1.46671
2.42426
-0.0771782
0.0230935
0.253889
0.575709
-0.539911
-0.538282
-0.37306
-0.181877
-0.518352
-0.50692
-0.467904
-0.841326
0.0569151
-0.278755
-0.627625
-1.61977
0.458502
0.43997
0.180572
-0.590715
0.247473
0.429564
0.506136
0.474025
0.0722763
0.143517
0.230863
0.45766
0.0596094
0.0693481
0.0950531
0.126435
0.0173077
0.00390351
-0.0137329
-0.0312828
-0.0011173
0.0286558
0.0784546
0.154409
-0.018747
-0.0120373
-0.0021441
0.00211023
-0.00725002
-0.00929791
-0.0106934
-0.0108307
-0.00063556
-0.00134875
-0.0022447
-0.00281819
0.000384067
0.000255858
0.000127341
-3.05121e-05
8.2719e-05
0.000110388
0.000128748
9.51905e-05
4.34267e-06
1.05006e-05
1.92496e-05
2.47076e-05
-1.51501e-06
-9.58277e-07
1.53934e-06
2.37606e-06
-3.54406e-07
-4.31383e-07
-2.19135e-07
-3.27711e-07
5.15083e-08
4.7465e-08
1.14924e-08
-1.22826e-07
1.00417e-07
1.21366e-07
1.06686e-07
8.28696e-09
1.38321e-07
1.71533e-07
1.6818e-07
8.55515e-08
2.10683e-07
2.69929e-07
2.70982e-07
2.22878e-07
2.5091e-07
3.81946e-07
4.63305e-07
4.90312e-07
2.67209e-07
4.46341e-07
5.415e-07
4.93833e-07
1.90299e-07
4.21671e-07
6.27929e-07
6.70996e-07
1.11469e-07
3.45328e-07
6.46799e-07
8.25988e-07
9.68051e-08
3.1969e-07
6.55806e-07
9.13751e-07
2.02808e-07
5.0721e-07
9.75234e-07
1.30325e-06
6.62134e-07
1.19387e-06
1.70631e-06
1.91567e-06
9.28288e-07
1.68856e-06
2.40917e-06
3.23981e-06
1.2746e-06
2.0703e-06
3.3097e-06
2.89109e-06
1.36234e-06
2.03424e-06
2.08405e-06
-1.37974e-06
-3.35152e-07
-1.13343e-06
-2.41376e-06
-7.28952e-06
-6.68224e-06
-1.25221e-05
-2.31926e-05
-4.37507e-05
-1.59575e-05
-3.37414e-05
-5.13055e-05
-8.11848e-05
-2.7051e-05
-6.10424e-05
-9.3259e-05
-0.000121811
-3.24788e-05
-7.73987e-05
-0.000147002
-0.000184632
-7.4091e-05
-0.000123857
-0.000185453
-0.000236446
-9.28289e-05
-0.000162741
-0.000225398
-0.000269624
-9.19082e-05
-0.000172383
-0.000240564
-0.000277602
-6.05739
0.307993
2.89615
3.88624
1.50995
0.987681
1.0774
0.793727
0.488811
0.353963
0.0295609
0.0596509
1.18362
1.41636
1.33166
2.3313
1.36524
0.684296
3.72119
3.22171
1.7143
1.2965
-4.42886
-0.326004
-0.0312119
-0.0796292
-0.125025
0.494894
0.371054
0.0639599
-0.0597262
0.866564
1.49061
1.02126
1.76253
0.80967
-0.25622
3.65908
1.06957
1.27688
1.44042
0.894743
0.711912
0.564401
-0.391806
-2.18534
-0.112663
0.14047
0.0639014
-0.138688
0.81079
1.47933
0.203607
0.497662
-0.426206
-0.178424
2.24215
-0.267533
0.178574
0.425284
0.799018
0.320771
0.900839
2.1848
-4.4938
-2.79903
-0.80982
-0.394591
-0.45504
1.16491
1.93498
0.478796
1.72189
3.60229
3.18687
1.08472
-0.590671
-0.829102
-0.516247
0.504263
0.342497
0.516856
2.15194
1.46817
0.897867
-2.59683
-1.62765
-0.635772
0.583056
2.98468
0.615279
0.283985
2.04459
1.40191
-0.661351
1.28212
-2.408
0.588248
-1.12074
-0.926657
-0.27337
0.0786486
1.23052
2.54858
2.66232
-1.42214
-1.41318
-0.14931
1.47365
0.876082
-0.0599535
-0.33539
-0.574569
-1.09397
2.64594
1.76141
0.640403
-0.481969
-0.289633
-0.0551994
0.181703
-0.603455
0.323593
1.52527
2.75193
1.3115
2.01652
1.64576
2.3656
2.19718
0.545557
-0.874913
-1.62633
0.991315
0.729381
0.307899
0.203807
0.197112
0.619514
1.39337
-0.170988
2.35467
1.02489
1.6918
2.99565
2.97597
1.97285
-0.0450046
-1.09954
-1.69121
-1.70117
-1.69492
0.488514
-0.170301
-0.121664
-0.200463
0.0760747
0.626858
1.19222
0.713855
0.583602
1.85081
2.34479
2.278
2.07284
1.6398
0.158949
-1.05263
-1.67314
-1.46017
-1.5093
0.0135199
-0.152218
-0.108531
-0.00886321
0.232693
0.536184
1.11164
1.6981
2.0147
1.76404
0.948044
1.28284
1.28298
0.635006
1.16575
-0.333031
-1.28093
-1.23167
-1.27459
-0.0639308
-0.0878488
0.0140999
0.141199
0.317368
0.572065
1.03723
1.53286
1.98489
2.28583
2.30095
2.73786
2.08337
0.566874
0.0743515
-0.879865
-1.07674
-1.00769
-0.985077
0.300451
0.565851
0.821541
1.04432
1.37441
1.61019
1.75067
2.07017
2.25923
2.35631
3.3735
3.4802
3.09183
2.11083
-0.0844839
-0.732024
-1.01083
-0.801897
-0.827227
0.00280676
-0.0212612
-0.0292226
0.0909343
0.348548
0.701736
1.31448
1.61351
1.73624
1.5323
1.82755
3.3228
3.82199
2.70509
0.936831
-0.44395
-1.15348
-0.707363
-0.670762
-0.00918089
-0.0222383
-0.0285685
-0.00753649
0.0460246
0.304028
0.682127
0.801598
0.49842
0.177779
0.297649
0.78998
1.11473
2.55408
1.65806
-0.0437907
-0.434456
-0.282084
-0.39789
-0.00341319
-0.00266332
-0.00472513
0.00231065
0.0506918
0.195
0.267228
0.27964
0.222223
0.24332
0.59443
0.980977
2.00292
2.21555
2.08888
0.717261
0.310047
0.495104
0.142276
-0.000698382
-0.00016547
-0.00141567
-0.00498419
-0.00200963
0.0285145
0.0764665
0.0759786
0.0594741
0.074328
0.294686
0.708581
1.05165
0.983514
2.14703
1.82012
1.2169
1.36763
0.840272
1.64264e-05
0.000130131
-7.87126e-05
-0.00146066
-0.00414068
-0.00726485
0.0114428
0.0133506
0.058054
0.136025
0.313326
0.642782
0.829596
1.2727
2.12583
2.53879
2.35737
2.03203
1.45907
2.40965e-05
3.63254e-05
5.24034e-05
-0.000122521
-0.00100149
-0.00300222
-0.000925096
0.00337102
0.0294694
0.0817989
0.234038
0.298529
0.4228
0.643173
1.34868
2.03421
2.89798
2.52703
1.96955
3.46863e-06
3.8184e-06
1.2475e-05
3.27191e-05
-0.000133929
-0.000684917
-0.00131569
-0.00158912
0.00266097
-0.00542319
0.0262435
0.127965
0.287254
0.589878
0.992324
1.75608
3.18805
2.74663
2.35378
-3.5286e-07
-1.06129e-06
-1.37832e-06
1.25885e-05
1.32337e-05
-0.000114769
-0.000362342
-0.000764041
-0.000948422
-0.00544028
-0.00543254
0.0607982
0.146211
0.304114
0.682855
1.99272
3.5194
2.90202
2.58639
-5.53367e-07
-1.57995e-06
-2.86437e-06
1.27219e-06
1.59446e-05
-3.7949e-06
-7.98785e-05
-0.000195732
-0.000830589
-0.00372237
0.0193632
0.092595
0.11462
0.24281
0.448186
1.43867
3.44284
3.10615
2.71976
-4.20928e-07
-1.58121e-06
-2.10256e-06
6.94225e-07
1.51494e-05
3.44155e-05
8.59209e-05
1.83966e-05
-0.000585343
-0.00280483
0.0132278
0.0770284
0.0798905
0.15249
0.322077
1.01362
3.007
3.39019
2.801
-3.1378e-07
-1.29684e-06
-1.03738e-06
1.3505e-06
1.40245e-05
5.41017e-05
0.000165114
0.000248501
-0.000266793
-0.00103698
0.00820697
0.00132346
0.0123856
0.129918
0.305406
0.593299
2.03734
3.63684
2.85694
-4.24388e-08
-6.16696e-07
-6.75166e-07
4.59697e-07
4.51577e-06
2.52437e-05
0.000154485
0.000587258
0.000232603
-7.79127e-05
0.00168337
-0.00530502
0.0114123
0.121538
0.322405
0.412943
1.26966
3.69767
2.90505
2.8999e-07
6.49652e-08
-2.21979e-06
-1.50694e-05
-1.07757e-05
2.32041e-05
0.00014625
0.00056991
0.000671651
0.000240541
-0.00210276
0.00485057
0.0912328
0.221264
0.345454
0.431623
0.947098
3.58734
2.94954
-2.1316e-07
-2.77894e-06
-1.19372e-05
-4.19575e-05
-5.07293e-05
-4.63954e-05
9.29653e-06
0.000357265
0.000750188
0.000405968
-0.000326618
0.00791875
0.0633329
0.201921
0.377147
0.449109
0.814496
3.39789
2.96222
8.32456e-08
-2.02336e-06
-1.24939e-05
-5.16845e-05
-9.15326e-05
-7.43773e-05
0.000106073
0.000542234
0.00104921
0.000709678
0.000638079
0.00669704
0.0569196
0.178828
0.327764
0.431865
0.747391
3.35221
2.97566
8.32514e-07
5.97235e-09
-9.05358e-06
-4.99261e-05
-0.000139922
-0.000129603
-8.804e-05
0.000157053
0.000948776
0.00129573
0.00287004
0.0133127
0.0455231
0.129961
0.306944
0.436137
0.587324
2.9462
3.00211
1.04874e-06
7.8685e-07
-3.71215e-06
-3.37222e-05
-0.000134612
-0.000157476
-9.81019e-05
0.000213215
0.000851558
0.0015266
0.00531842
0.02691
0.0723798
0.116889
0.276316
0.422338
0.553174
2.64039
3.02929
1.54354e-06
2.60096e-07
-5.90328e-06
-3.03564e-05
-0.000127029
-0.000156346
-5.53619e-05
0.000815272
0.00158421
0.00333897
0.00780064
0.0183975
0.0301935
0.0956699
0.321147
0.410478
0.498776
2.3185
2.9978
3.36475e-07
-8.31892e-06
-2.23146e-05
-4.8306e-05
-0.000124513
-0.000138586
-5.12771e-05
0.000348126
0.00122728
0.00283865
0.00713604
0.00986058
0.0239586
0.125916
0.312681
0.385684
0.49814
2.22815
2.98036
1.315e-06
-8.16492e-06
-3.12502e-05
-6.4729e-05
-0.000109417
-0.000126876
-0.000148157
-9.93251e-05
0.000557775
0.00241706
0.00606203
0.00702378
0.0121477
0.0619734
0.2386
0.42272
0.528089
1.87214
2.90322
-6.00527e-06
-2.57135e-05
-6.76171e-05
-0.000110167
-0.000110924
-0.000114485
-0.000119964
-5.66229e-05
0.000647843
0.00183119
0.00285531
0.00587769
0.0327243
0.148684
0.360117
0.510376
1.03908
2.01096
2.86155
-2.35424e-05
-6.01155e-05
-0.000132064
-0.000133356
-0.00011236
-5.90673e-05
-5.14639e-05
-8.06006e-06
0.000190313
0.000841138
0.00240628
0.00860211
0.0374792
0.137163
0.364968
0.432963
0.557477
1.42661
2.84759
-3.68697e-05
-9.06118e-05
-0.000145619
-0.000141798
-0.000118394
-4.11821e-05
6.5632e-05
0.000149154
0.000316338
0.00060027
0.00142678
0.00571601
0.0286272
0.14823
0.410385
0.448152
0.442006
1.15086
2.82945
-9.52926e-05
-0.000155077
-0.000159134
-0.000159238
-7.86838e-05
2.51211e-05
0.000335061
0.000511932
0.000530271
0.000599629
0.00088773
0.00532106
0.0228405
0.10339
0.350237
0.394735
0.272224
0.683928
2.66666
-0.000149466
-0.000162365
-0.000169431
-0.000130242
-1.502e-05
0.000101494
0.000423122
0.000974879
0.00107072
0.0010395
0.00135626
0.00388765
0.0152376
0.0844397
0.305883
0.380856
0.533393
1.90336
2.52535
-0.000198037
-0.000177389
-0.000104053
8.34167e-05
0.00025276
0.000316056
0.000595714
0.00140252
0.00154354
0.00173593
0.00204248
0.00297395
0.00652695
0.0341247
0.166177
0.312123
0.40185
1.3452
2.4508
-0.000220433
-0.000179367
5.54571e-05
0.000814202
0.000893276
0.00122679
0.00163174
0.00225279
0.00242525
0.00287764
0.00331685
0.00420038
0.0047772
0.0198253
0.115348
0.292407
0.373105
0.971604
2.34778
-0.00024367
-0.000150702
0.000235997
0.00168888
0.00218322
0.00339945
0.00443152
0.00378045
0.00406392
0.00572778
0.00744086
0.00750068
0.00863229
0.00745341
0.00183756
0.178205
0.311565
0.729424
2.20867
-0.000263983
-8.68768e-05
0.00069012
0.00197121
0.00350097
0.00434193
0.00628116
0.00609153
0.00631046
0.00692682
0.0069506
0.00720899
0.00728344
0.00581577
0.0016178
0.056235
0.161171
0.366664
2.02252
-0.000274465
-0.000110786
0.00104525
0.00234127
0.00434474
0.00597911
0.00694459
0.00643289
0.00636388
0.00570779
0.00510631
0.00490786
0.00503288
0.00517663
0.000858712
-0.0173036
-0.0206757
-0.17983
0.862801
)
;

boundaryField
{
    leftWall
    {
        type            zeroGradient;
    }
    rightWall
    {
        type            zeroGradient;
    }
    lowerWall
    {
        type            zeroGradient;
    }
    atmosphere
    {
        type            zeroGradient;
    }
    defaultFaces
    {
        type            empty;
    }
}


// ************************************************************************* //
