/*--------------------------------*- C++ -*----------------------------------*\
| =========                 |                                                 |
| \\      /  F ield         | foam-extend: Open Source CFD                    |
|  \\    /   O peration     | Version:     4.1                                |
|   \\  /    A nd           | Web:         http://www.foam-extend.org         |
|    \\/     M anipulation  |                                                 |
\*---------------------------------------------------------------------------*/
FoamFile
{
    version     2.0;
    format      ascii;
    class       volVectorField;
    location    "0.45";
    object      U;
}
// * * * * * * * * * * * * * * * * * * * * * * * * * * * * * * * * * * * * * //

dimensions      [0 1 -1 0 0 0 0];

internalField   nonuniform List<vector> 
2268
(
(0.0479306 -0.00644286 0)
(0.0544554 -0.00482446 0)
(0.1287 -0.00630884 0)
(0.157432 -0.00602792 0)
(0.225638 -0.00273735 0)
(0.251196 -0.00625627 0)
(0.296415 -0.00200661 0)
(0.310342 -0.000254568 0)
(0.344354 0.00309673 0)
(0.321223 0.0201191 0)
(0.255128 -0.054997 0)
(0.253874 -0.0231381 0)
(0.279071 -0.0163246 0)
(0.273825 -0.00893661 0)
(0.276086 -0.00947583 0)
(0.250122 -0.00942268 0)
(0.258567 -0.0311875 0)
(0.258901 -0.0133027 0)
(0.213003 -0.0218489 0)
(0.195257 0.0305395 0)
(0.131514 0.0436992 0)
(0.113037 0.0156467 0)
(0.14358 -0.00030446 0)
(0.0466811 -0.0177628 0)
(0.0551265 -0.0141855 0)
(0.129555 -0.0184042 0)
(0.158702 -0.0163112 0)
(0.221535 -0.0200969 0)
(0.2539 -0.00956558 0)
(0.305642 -0.0130015 0)
(0.321523 -0.0108485 0)
(0.363137 -0.0115957 0)
(0.31907 0.00205638 0)
(0.264688 -0.0419466 0)
(0.280469 -0.00496597 0)
(0.291692 0.00219517 0)
(0.284463 0.0109841 0)
(0.286879 0.0195321 0)
(0.252749 0.0331663 0)
(0.267523 0.0227952 0)
(0.304449 0.0381287 0)
(0.261413 0.0457771 0)
(0.210246 0.00544747 0)
(0.102321 0.0293555 0)
(0.11351 0.0985765 0)
(0.16969 0.0588292 0)
(0.0417915 -0.0305452 0)
(0.0536948 -0.0243795 0)
(0.130293 -0.0311013 0)
(0.160811 -0.0270546 0)
(0.214291 -0.0260599 0)
(0.268678 -0.025522 0)
(0.305045 -0.0177836 0)
(0.324657 -0.0128957 0)
(0.374269 0.00816205 0)
(0.294979 -0.088307 0)
(0.250534 -0.0500994 0)
(0.260725 -0.01828 0)
(0.261397 -0.0110464 0)
(0.252993 -0.000947802 0)
(0.261152 0.00423164 0)
(0.234869 0.0163368 0)
(0.249884 0.0663577 0)
(0.261694 0.0282165 0)
(0.235045 0.0406972 0)
(0.196265 0.0172419 0)
(0.166531 0.045425 0)
(0.117509 0.0839662 0)
(0.141247 0.0715936 0)
(0.0354917 -0.0402738 0)
(0.0531692 -0.0349689 0)
(0.135588 -0.0441222 0)
(0.164391 -0.0356962 0)
(0.217847 -0.0462267 0)
(0.274717 -0.0299927 0)
(0.296538 -0.0287918 0)
(0.35622 -0.0289477 0)
(0.318184 -0.00941137 0)
(0.24678 -0.0794927 0)
(0.243027 -0.0341417 0)
(0.217806 -0.0101261 0)
(0.215483 0.00499615 0)
(0.196494 0.0200777 0)
(0.206051 0.0279406 0)
(0.193917 0.0210579 0)
(0.201964 0.0700247 0)
(0.204629 0.0201712 0)
(0.201187 0.0258675 0)
(0.180757 0.0228718 0)
(0.13897 0.0666595 0)
(0.110359 0.0931925 0)
(0.151498 0.115703 0)
(0.0300427 -0.0515703 0)
(0.0527692 -0.0480874 0)
(0.137615 -0.057563 0)
(0.166902 -0.0457199 0)
(0.225505 -0.0533447 0)
(0.261718 -0.0441524 0)
(0.290279 -0.0359474 0)
(0.356696 -0.0143624 0)
(0.289572 -0.0939997 0)
(0.217793 -0.0624031 0)
(0.216953 -0.0350821 0)
(0.192967 -0.00513773 0)
(0.18975 0.00497877 0)
(0.175261 0.011712 0)
(0.175079 0.0306269 0)
(0.156935 0.0211113 0)
(0.150166 0.051193 0)
(0.140492 0.0310523 0)
(0.12432 0.0488269 0)
(0.138451 0.0628973 0)
(0.137843 0.0711917 0)
(0.108547 0.128341 0)
(0.145552 0.133465 0)
(0.0304078 -0.0597162 0)
(0.0587426 -0.0602188 0)
(0.141634 -0.0715476 0)
(0.168341 -0.0564791 0)
(0.218069 -0.0696077 0)
(0.255348 -0.043664 0)
(0.316693 -0.0586033 0)
(0.274836 -0.0335937 0)
(0.216483 -0.0847427 0)
(0.213609 -0.0512283 0)
(0.197787 -0.023459 0)
(0.182738 0.00311684 0)
(0.18064 0.0199315 0)
(0.160637 0.0404028 0)
(0.156613 0.0452609 0)
(0.142079 0.035034 0)
(0.133373 0.0787479 0)
(0.128941 0.0329501 0)
(0.126616 0.091946 0)
(0.103618 0.0571854 0)
(0.117332 0.0898878 0)
(0.104652 0.156037 0)
(0.141217 0.175858 0)
(0.0351176 -0.0727611 0)
(0.0636574 -0.0744218 0)
(0.138147 -0.083345 0)
(0.16153 -0.0631304 0)
(0.218126 -0.0747581 0)
(0.253338 -0.0708168 0)
(0.270843 -0.0312298 0)
(0.235013 -0.0997925 0)
(0.201337 -0.0758894 0)
(0.209856 -0.0504838 0)
(0.190406 -0.0229063 0)
(0.186651 0.00372982 0)
(0.181573 0.0235908 0)
(0.162169 0.0320604 0)
(0.138534 0.0465983 0)
(0.142784 0.0353663 0)
(0.120405 0.0548399 0)
(0.117079 0.0424382 0)
(0.102769 0.0649614 0)
(0.0957144 0.0915298 0)
(0.143101 0.0888035 0)
(0.102748 0.175482 0)
(0.139939 0.188835 0)
(0.0395492 -0.082814 0)
(0.0688687 -0.0843743 0)
(0.138983 -0.0951051 0)
(0.15988 -0.078028 0)
(0.214187 -0.0956578 0)
(0.259222 -0.0487234 0)
(0.216956 -0.0722764 0)
(0.211864 -0.106916 0)
(0.201107 -0.0770611 0)
(0.209734 -0.0476213 0)
(0.192188 -0.0138387 0)
(0.186729 0.00829789 0)
(0.173811 0.0431233 0)
(0.160935 0.0332551 0)
(0.146558 0.0618007 0)
(0.139014 0.0439759 0)
(0.125853 0.0312927 0)
(0.124274 0.032018 0)
(0.135206 0.0306601 0)
(0.0972652 0.106717 0)
(0.127754 0.0768522 0)
(0.110586 0.170999 0)
(0.114464 0.246433 0)
(-2.99639 0.529022 0)
(-3.69336 0.144363 0)
(-3.74557 -0.253097 0)
(-3.29246 -0.381541 0)
(-3.04925 -0.287517 0)
(-2.73464 -0.323591 0)
(-2.57723 -0.208097 0)
(-2.42561 -0.237962 0)
(-2.33257 -0.151744 0)
(-2.21762 -0.165839 0)
(-2.1165 -0.118504 0)
(-1.97199 -0.173145 0)
(-1.89735 -0.177285 0)
(-1.77444 -0.22384 0)
(-1.76719 -0.247831 0)
(-1.96734 -0.126462 0)
(-1.57024 0.0256974 0)
(-1.23552 -0.358661 0)
(-0.492045 -0.174647 0)
(-2.61998 1.06557 0)
(-2.34465 1.05671 0)
(-1.07235 0.284069 0)
(-1.09352 -0.0801062 0)
(-0.783152 -0.211538 0)
(-0.628261 -0.0557566 0)
(-0.577769 -0.0327694 0)
(-0.934564 0.0291616 0)
(-1.12704 -0.00530403 0)
(-1.17282 -0.0166496 0)
(-1.14333 -0.110171 0)
(-1.00707 -0.136428 0)
(-0.960351 -0.145103 0)
(-0.980537 -0.0346823 0)
(-1.37381 -0.263016 0)
(-1.807 0.0765439 0)
(-1.70716 0.288282 0)
(-0.954357 -0.433679 0)
(-0.272635 -0.625651 0)
(-1.92482 1.35114 0)
(-1.03093 0.779325 0)
(-0.57442 -0.516713 0)
(-0.990034 -0.319405 0)
(-0.845395 -0.400378 0)
(-0.716015 -0.0283023 0)
(-0.638939 0.0264829 0)
(-0.774037 0.115032 0)
(-0.901773 -0.00643638 0)
(-1.00747 -0.101443 0)
(-0.930691 -0.2577 0)
(-0.792392 -0.300727 0)
(-0.654944 -0.329749 0)
(-0.610498 -0.114485 0)
(-1.23153 -0.203736 0)
(-1.66688 -0.0107743 0)
(-1.63875 0.154645 0)
(-0.834613 -0.322286 0)
(0.0297036 -0.732363 0)
(-1.53794 1.72761 0)
(0.0347385 1.07229 0)
(1.21547 -0.372573 0)
(0.773264 -0.393685 0)
(0.239202 -0.273529 0)
(0.474295 -0.126811 0)
(0.336219 0.0595272 0)
(-0.369074 0.355696 0)
(-0.38925 0.128074 0)
(-0.5013 0.0788804 0)
(-0.520472 -0.0402877 0)
(-0.554291 -0.145138 0)
(-0.514247 -0.238625 0)
(-0.334784 -0.0495356 0)
(-0.411391 0.0733705 0)
(-1.14964 0.100895 0)
(-0.887364 -0.149322 0)
(-0.901867 -0.323646 0)
(0.157994 -1.02045 0)
(-0.962935 1.60405 0)
(1.14883 0.485265 0)
(2.02492 -0.231287 0)
(1.8349 -0.465776 0)
(1.32965 -0.203227 0)
(1.24298 -0.120796 0)
(1.06621 0.342203 0)
(0.591708 0.400041 0)
(-0.124153 0.169561 0)
(-0.207642 -0.0509886 0)
(-0.0241968 -0.20992 0)
(-0.146047 -0.232115 0)
(-0.306421 -0.461993 0)
(-0.347922 -0.22757 0)
(0.388122 -0.0321652 0)
(-0.592482 0.404866 0)
(-0.286607 -0.243373 0)
(-0.807086 -0.308411 0)
(0.348518 -1.16034 0)
(-0.810744 1.98867 0)
(2.24564 0.401791 0)
(2.07064 -0.120967 0)
(1.51306 -0.341586 0)
(1.18734 -0.246573 0)
(1.39971 -0.165481 0)
(1.45782 0.251051 0)
(1.10316 0.704569 0)
(0.542264 0.408366 0)
(-0.0189858 0.143438 0)
(0.115434 -0.12712 0)
(-0.0815069 -0.125119 0)
(-0.154886 -0.510271 0)
(-0.0400556 -0.299939 0)
(0.351991 0.0708846 0)
(0.000577868 0.381092 0)
(0.0232636 -0.124182 0)
(-0.757424 -0.360509 0)
(0.35581 -1.29982 0)
(-0.0440032 2.14879 0)
(1.93512 0.221305 0)
(1.72289 -0.285029 0)
(1.10509 -0.405745 0)
(1.14987 -0.421738 0)
(1.42327 -0.104316 0)
(1.75816 0.395599 0)
(1.44371 0.603355 0)
(0.664429 0.592409 0)
(0.346812 0.296288 0)
(0.126815 -0.14696 0)
(-0.0633007 -0.115306 0)
(-0.0509726 -0.452285 0)
(0.0534326 -0.384897 0)
(0.24435 0.0180331 0)
(0.422798 0.359673 0)
(0.472443 -0.0234106 0)
(-0.690072 -0.282746 0)
(0.429506 -1.36366 0)
(0.30422 0.650644 0)
(1.03275 0.142029 0)
(0.986738 -0.248427 0)
(0.899294 -0.443675 0)
(0.84826 -0.388263 0)
(1.10106 0.0203621 0)
(1.71737 0.424709 0)
(1.66239 0.831491 0)
(1.09763 0.852338 0)
(0.841171 0.407269 0)
(0.403563 -0.0361841 0)
(-0.117038 -0.0912862 0)
(0.11797 -0.577936 0)
(0.194289 -0.471007 0)
(0.233161 -0.0099757 0)
(0.474513 0.392391 0)
(0.606093 0.0922873 0)
(-0.584041 -0.308644 0)
(0.454398 -1.42678 0)
(0.0395903 -0.106145 0)
(0.0630622 -0.10426 0)
(0.131931 -0.110881 0)
(0.138568 -0.0772355 0)
(0.228337 -0.0965838 0)
(0.18978 -0.0995377 0)
(0.185657 -0.116547 0)
(0.218661 -0.0983938 0)
(0.207115 -0.0726174 0)
(0.21855 -0.04548 0)
(0.205359 -0.0110523 0)
(0.214324 0.0154835 0)
(0.189007 0.0474267 0)
(0.180421 0.0470695 0)
(0.160259 0.0594223 0)
(0.141338 0.0474159 0)
(0.122511 0.0651187 0)
(0.0985456 0.0586743 0)
(0.111581 0.093561 0)
(0.112968 0.0614446 0)
(0.194319 0.10006 0)
(0.245318 0.180739 0)
(0.176427 0.298116 0)
(0.0443816 -0.127234 0)
(0.0487345 -0.126648 0)
(0.148251 -0.129494 0)
(0.129112 -0.13507 0)
(0.136075 -0.128515 0)
(0.176868 -0.171945 0)
(0.196578 -0.114288 0)
(0.219338 -0.118798 0)
(0.228867 -0.0914076 0)
(0.234302 -0.050066 0)
(0.23495 -0.0124891 0)
(0.234201 0.0218193 0)
(0.214054 0.0373289 0)
(0.206239 0.0542211 0)
(0.18572 0.0521632 0)
(0.178358 0.0738844 0)
(0.154531 0.0728365 0)
(0.166465 0.102073 0)
(0.141644 0.0867195 0)
(0.134358 0.107033 0)
(0.198097 0.0736604 0)
(0.360663 0.121438 0)
(0.253677 0.187152 0)
(0.0129907 -0.152815 0)
(0.0221338 -0.156852 0)
(0.0472976 -0.153805 0)
(0.0558866 -0.187466 0)
(0.0834979 -0.151364 0)
(0.0764455 -0.155276 0)
(0.0855295 -0.152671 0)
(0.084983 -0.128214 0)
(0.0932636 -0.0876246 0)
(0.0858735 -0.0531933 0)
(0.116419 -0.0128905 0)
(0.116836 0.0382388 0)
(0.159569 0.0718754 0)
(0.177549 0.0780767 0)
(0.170072 0.0817179 0)
(0.15307 0.0810118 0)
(0.163417 0.0770687 0)
(0.14533 0.0823401 0)
(0.146305 0.0517897 0)
(0.150527 0.0830493 0)
(0.209786 0.0566073 0)
(0.333866 0.109679 0)
(0.322896 0.0865624 0)
(0.00591969 -0.161372 0)
(0.00842815 -0.161073 0)
(0.0226906 -0.163714 0)
(0.0272811 -0.173419 0)
(0.0305661 -0.155141 0)
(0.0417001 -0.167469 0)
(0.0338171 -0.130945 0)
(0.0230481 -0.122252 0)
(0.00077391 -0.0905678 0)
(-0.0385461 -0.0680974 0)
(-0.0626447 -0.0360896 0)
(-0.0874974 -0.0136691 0)
(-0.0456193 0.0298929 0)
(0.0215694 0.046588 0)
(0.0672755 0.0833667 0)
(0.047741 0.0823823 0)
(0.0696167 0.0795953 0)
(0.0969046 0.0353248 0)
(0.126226 0.0635024 0)
(0.15442 0.050436 0)
(0.206562 0.0743673 0)
(0.262663 0.0367637 0)
(0.280893 0.0912802 0)
(0.00181126 -0.168546 0)
(0.00999151 -0.175561 0)
(0.0169278 -0.174768 0)
(0.0231992 -0.189856 0)
(0.0277641 -0.173505 0)
(0.0298476 -0.153183 0)
(0.0236307 -0.135284 0)
(0.0148039 -0.0958171 0)
(-0.00572122 -0.0366086 0)
(-0.0459547 0.0115138 0)
(-0.0869938 0.0206298 0)
(-0.0804403 -0.0366927 0)
(-0.201206 -0.0381672 0)
(-0.17596 -0.013772 0)
(-0.17274 0.0529657 0)
(-0.264809 0.073302 0)
(-0.160853 0.0282874 0)
(-0.0897197 0.0241177 0)
(0.0631873 0.00427344 0)
(0.0798553 -0.00225067 0)
(0.15728 -0.0014922 0)
(0.350491 -0.0370667 0)
(0.255038 -0.0160644 0)
(0.00195099 -0.175162 0)
(0.00943378 -0.174066 0)
(0.00522147 -0.180125 0)
(0.00897703 -0.176869 0)
(-0.000254028 -0.16371 0)
(-0.0166764 -0.160165 0)
(-0.0156176 -0.11738 0)
(-0.0420614 -0.0906131 0)
(-0.0464275 -0.0286909 0)
(-0.0770884 0.0139027 0)
(-0.0890906 0.035205 0)
(-0.0471888 0.0555248 0)
(-0.203489 -0.0330726 0)
(-0.252085 0.134972 0)
(-0.280226 0.0333883 0)
(-0.34177 0.0734913 0)
(-0.239115 -0.0106034 0)
(-0.215929 -0.0888332 0)
(0.0332012 -0.113353 0)
(0.0530908 -0.0422235 0)
(0.338404 0.0137136 0)
(0.344543 -0.0303862 0)
(0.272745 -0.0810311 0)
(-0.00134685 -0.180304 0)
(-0.0234268 -0.175205 0)
(-0.057494 -0.169201 0)
(-0.0331812 -0.182086 0)
(-0.0792545 -0.145671 0)
(-0.0857432 -0.147835 0)
(-0.0802696 -0.0962845 0)
(-0.129543 -0.0562157 0)
(-0.140746 -0.00591502 0)
(-0.148202 -0.0184351 0)
(-0.162991 0.0507322 0)
(-0.12666 0.052857 0)
(-0.15591 0.0353817 0)
(-0.227847 0.237926 0)
(-0.154402 0.118728 0)
(-0.169627 0.136843 0)
(-0.0719347 -0.0971247 0)
(-0.144427 -0.235018 0)
(0.141506 -0.213096 0)
(0.11146 -0.151383 0)
(0.246383 -0.173958 0)
(0.237208 -0.269495 0)
(0.256394 -0.0985682 0)
(-0.00736642 -0.163871 0)
(-0.0510396 -0.147083 0)
(-0.115012 -0.147067 0)
(-0.0557861 -0.153334 0)
(-0.11551 -0.128815 0)
(-0.106 -0.15591 0)
(-0.079547 -0.0868953 0)
(-0.175786 -0.0402238 0)
(-0.225114 -0.0113216 0)
(-0.15195 0.03083 0)
(-0.139405 0.0851285 0)
(-0.11467 0.0871435 0)
(-0.173614 0.0718066 0)
(-0.228734 0.137298 0)
(-0.111107 0.152373 0)
(-0.15108 -0.0483689 0)
(0.00761758 -0.159695 0)
(-0.015179 -0.298621 0)
(0.159267 -0.248593 0)
(0.106532 -0.293154 0)
(0.0623296 -0.311131 0)
(0.084208 -0.309364 0)
(0.0384327 -0.136237 0)
(-0.0152691 -0.116074 0)
(-0.0685723 -0.149084 0)
(-0.128348 -0.152494 0)
(-0.0680832 -0.112985 0)
(-0.129689 -0.168377 0)
(-0.126319 -0.106256 0)
(-0.0981082 -0.108768 0)
(-0.149871 0.00840471 0)
(-0.16425 0.00890275 0)
(-0.15374 0.0969168 0)
(-0.219218 -0.00407662 0)
(-0.199849 0.0628914 0)
(-0.114479 0.0289746 0)
(-0.141375 0.204809 0)
(0.0134755 0.16343 0)
(0.0102611 0.00178242 0)
(0.030964 -0.133042 0)
(0.0256602 -0.316031 0)
(0.036916 -0.301241 0)
(0.191083 -0.413351 0)
(-0.0078759 -0.0741461 0)
(0.0268376 -0.193386 0)
(0.0151178 -0.208588 0)
(-0.0656654 -0.0878914 0)
(-0.0616402 -0.128616 0)
(-0.0696418 -0.147971 0)
(-0.0613343 -0.0899306 0)
(-0.106269 -0.16134 0)
(-0.0919298 -0.108112 0)
(-0.111398 -0.038181 0)
(-0.129326 -0.00236525 0)
(-0.0981484 0.00681912 0)
(-0.166814 -0.000388175 0)
(-0.22832 -0.04959 0)
(-0.16822 0.097822 0)
(-0.0975747 -0.0103949 0)
(-0.142851 0.113517 0)
(-0.0656004 -0.0687441 0)
(0.00445021 -0.0684152 0)
(0.0233595 -0.179504 0)
(-0.0383292 -0.275536 0)
(-0.18432 -0.304587 0)
(-0.172684 -0.230892 0)
(-0.200982 -0.225138 0)
(0.014448 -0.113048 0)
(-0.137976 -0.282759 0)
(-0.0592888 -0.0454238 0)
(-0.0463077 -0.0805824 0)
(-0.0559879 -0.141202 0)
(-0.0367109 -0.0752302 0)
(-0.0917411 -0.124848 0)
(-0.0647689 -0.0924844 0)
(-0.144261 -0.0743052 0)
(-0.128974 0.00399238 0)
(-0.0896306 0.0464182 0)
(-0.129746 0.0592825 0)
(-0.130494 0.0094939 0)
(-0.222993 0.105317 0)
(-0.189173 0.0025896 0)
(-0.100762 -0.00226938 0)
(-0.109147 -0.0229347 0)
(-0.0983918 -0.0199239 0)
(-0.162706 -0.137084 0)
(-0.124685 -0.169142 0)
(-0.294234 -0.165199 0)
(-0.439602 -0.323243 0)
(-0.4056 -0.282453 0)
(-0.45747 -0.236438 0)
(-0.356973 -0.278004 0)
(-0.0707584 -0.040307 0)
(-0.0147791 -0.0861042 0)
(-0.0409224 -0.160455 0)
(-0.045693 -0.0753465 0)
(-0.0598352 -0.113099 0)
(-0.0792186 -0.114027 0)
(-0.196617 -0.0653803 0)
(-0.134354 0.0558635 0)
(-0.065782 0.0760465 0)
(-0.195385 0.000848787 0)
(-0.191571 0.037233 0)
(-0.137719 0.0340053 0)
(-0.168183 0.0601202 0)
(-0.168883 -0.0310851 0)
(-0.111275 -0.0459592 0)
(-0.201436 -0.114885 0)
(-0.234682 -0.103848 0)
(-0.196547 -0.180991 0)
(-0.39415 -0.113198 0)
(-0.45122 -0.149188 0)
(-0.412708 -0.0945834 0)
(-0.782007 -0.234308 0)
(-0.975717 -0.0486842 0)
(-0.074923 0.00456471 0)
(0.00463528 -0.0635989 0)
(-0.0408605 -0.142578 0)
(-0.0203935 -0.00154478 0)
(-0.0910757 -0.105045 0)
(-0.0885046 -0.0587445 0)
(-0.125973 -0.0564393 0)
(-0.116687 0.101743 0)
(-0.177078 0.0484971 0)
(-0.182394 0.0221366 0)
(-0.0974883 0.135321 0)
(-0.149904 0.069112 0)
(-0.165992 0.10715 0)
(-0.199003 -0.0305099 0)
(-0.206319 -0.0397676 0)
(-0.16092 -0.079798 0)
(-0.190593 -0.0630283 0)
(-0.0941334 -0.206368 0)
(-0.339182 -0.168707 0)
(-0.455268 -0.0454076 0)
(-0.366425 0.00704293 0)
(-0.454736 0.0868845 0)
(-0.387855 0.423737 0)
(-0.00251418 0.0239045 0)
(0.0420648 -0.130168 0)
(-0.031829 -0.132568 0)
(-0.112378 -0.0586442 0)
(-0.0823856 -0.101168 0)
(-0.16952 -0.050835 0)
(-0.173886 0.00857328 0)
(-0.114901 0.00692824 0)
(-0.209823 0.0152221 0)
(-0.129338 0.0746768 0)
(-0.157719 0.102483 0)
(-0.0774173 0.0757494 0)
(-0.100677 0.137616 0)
(-0.232734 -0.0469101 0)
(-0.111947 -0.0154913 0)
(-0.213711 -0.0979518 0)
(-0.308503 -0.120004 0)
(-0.220924 -0.0396515 0)
(-0.194663 -0.240227 0)
(-0.26157 -0.0324518 0)
(-0.246095 0.00154789 0)
(-0.320597 0.162548 0)
(-0.238724 0.280604 0)
(-0.0255211 -0.0290484 0)
(0.0123089 -0.171792 0)
(-0.0597093 -0.137884 0)
(-0.0557475 -0.0812596 0)
(-0.0489529 -0.0803115 0)
(-0.0759116 -0.0700749 0)
(-0.17306 0.0122228 0)
(-0.167434 -0.00715242 0)
(-0.122875 0.0339826 0)
(-0.135837 0.033092 0)
(-0.113008 0.0466238 0)
(-0.101152 0.0640735 0)
(-0.143761 0.0377054 0)
(-0.115223 0.0235992 0)
(-0.073883 0.0998927 0)
(-0.186913 -0.110571 0)
(-0.112373 -0.0261229 0)
(-0.21607 -0.00811811 0)
(-0.216156 -0.0630008 0)
(-0.140594 -0.00646284 0)
(-0.158263 0.0263942 0)
(-0.153958 0.137431 0)
(-0.134341 0.220517 0)
(-0.00575641 0.0305408 0)
(-0.00942038 -0.118261 0)
(-0.0223951 -0.0579483 0)
(-0.0553083 -0.0040182 0)
(-0.0856625 -0.0165111 0)
(-0.125576 -0.0231458 0)
(-0.129842 -0.0150046 0)
(-0.0934403 0.0946049 0)
(-0.135669 0.00935408 0)
(-0.121386 0.0281925 0)
(-0.141546 0.0649892 0)
(-0.10007 0.103804 0)
(-0.123434 0.0711102 0)
(-0.109938 -0.0161074 0)
(-0.147146 -0.0577254 0)
(-0.141313 -0.00490311 0)
(-0.144474 -0.0489476 0)
(-0.18405 -0.0693717 0)
(-0.0510224 -0.0168053 0)
(-0.116907 -0.0667936 0)
(-0.0855525 0.0534222 0)
(-0.0571971 0.134027 0)
(0.0301414 0.142894 0)
(-0.00360373 0.00285436 0)
(0.000292569 -0.123797 0)
(-0.0405216 -0.0597485 0)
(-0.0179102 -0.0635903 0)
(-0.0471494 -0.0288139 0)
(-0.0682343 0.00479827 0)
(-0.105663 0.085873 0)
(-0.123875 0.0715343 0)
(-0.175907 0.0729767 0)
(-0.086805 0.0179852 0)
(-0.0642937 0.0452725 0)
(-0.0718533 0.10422 0)
(-0.174245 0.032311 0)
(-0.174407 0.0342727 0)
(-0.066484 -0.0564023 0)
(-0.092541 0.0834149 0)
(-0.0954565 -0.107277 0)
(-0.0732054 -0.0269624 0)
(-0.0747517 -0.0766139 0)
(-0.0586502 -0.0720308 0)
(-0.0023353 0.0428128 0)
(-0.00875211 0.0999504 0)
(0.0173992 0.187754 0)
(-0.0505084 0.0184091 0)
(-0.0159459 -0.0609994 0)
(-0.0196592 -0.0143455 0)
(-0.0190068 -0.0143723 0)
(-0.0264755 -0.0140083 0)
(-0.0366374 0.013523 0)
(-0.101319 0.0299778 0)
(-0.0529956 0.0650573 0)
(-0.10196 0.0296082 0)
(-0.134204 0.0667814 0)
(-0.0794085 0.0441402 0)
(-0.0668527 0.130021 0)
(-0.0592393 0.0336052 0)
(-0.0782184 0.0806651 0)
(-0.0866652 -0.0659595 0)
(-0.120407 -0.0901327 0)
(-0.124798 -0.0774369 0)
(-0.0387425 -0.0954233 0)
(-0.0269518 -0.100458 0)
(-0.00711307 -0.0644536 0)
(0.0184762 -0.0059191 0)
(0.0701311 0.0724244 0)
(0.0436966 0.141201 0)
(-0.0650664 0.0740459 0)
(-0.0106009 -0.0520906 0)
(-0.0477346 -0.0286478 0)
(-0.0399157 -0.0126699 0)
(-0.0308079 0.00289611 0)
(-0.0514189 0.0212165 0)
(-0.0679927 0.0841446 0)
(-0.0540384 0.137408 0)
(-0.0585501 0.0245377 0)
(-0.0499852 -0.0188436 0)
(-0.0824109 0.106405 0)
(-0.0393483 0.0967854 0)
(-0.133257 0.0923968 0)
(-0.138493 0.0240535 0)
(-0.0617855 -0.0245882 0)
(-0.0549104 -0.0646783 0)
(-0.0494543 -0.0375123 0)
(-0.0296253 -0.084563 0)
(-0.010221 -0.10159 0)
(0.0106364 -0.0965359 0)
(0.0382789 -0.0128198 0)
(0.0318144 0.0805442 0)
(0.00921658 0.17346 0)
(-0.0224055 0.0475429 0)
(-0.00947824 -0.0540357 0)
(-0.0399322 -0.0341623 0)
(-0.00984137 0.0215462 0)
(-0.0376582 -0.0238195 0)
(-0.0162662 0.0722726 0)
(-0.0105478 0.051442 0)
(-0.00625025 0.0980466 0)
(-0.0901161 0.0623822 0)
(-0.0475148 -0.00125523 0)
(-0.04555 0.115183 0)
(-0.0625921 0.169383 0)
(-0.0331331 0.0549535 0)
(-0.0228275 0.0592138 0)
(-0.0531847 -0.0387008 0)
(-0.0506743 -0.0298481 0)
(-0.0265438 -0.0736452 0)
(-0.0157815 -0.10077 0)
(-0.00308035 -0.135292 0)
(0.0194895 -0.107492 0)
(0.022656 -0.0326594 0)
(0.0409904 0.0597049 0)
(0.0597509 0.134491 0)
(-0.0145134 0.12491 0)
(0.00761442 -0.0458916 0)
(-0.0475371 0.0032297 0)
(-0.010039 -0.0108054 0)
(-0.029936 0.00786806 0)
(-0.00486633 0.0456432 0)
(-0.0562606 0.0628625 0)
(0.0195394 0.117863 0)
(0.00550975 0.000284605 0)
(-0.00705276 -0.0201067 0)
(0.058789 0.0649055 0)
(-0.00336221 0.138126 0)
(-0.0711824 0.134381 0)
(0.000231534 0.0114191 0)
(-0.0255907 -0.0508074 0)
(-0.00858802 -0.0388761 0)
(-0.000536346 -0.0772048 0)
(0.00610612 -0.106121 0)
(0.0133693 -0.138429 0)
(0.012592 -0.11056 0)
(0.0158933 -0.0390238 0)
(-0.00817403 0.0692688 0)
(0.0743546 0.0952926 0)
(-0.0461244 0.170217 0)
(-0.0173027 -0.0475207 0)
(-0.0534927 -0.00848663 0)
(-0.00245639 -0.0207995 0)
(-0.0462713 -0.00755265 0)
(-0.00244176 0.0594043 0)
(-0.0175247 0.0755337 0)
(0.0796472 0.142456 0)
(0.0314492 0.0991003 0)
(0.0213497 -0.00811783 0)
(-0.00177556 0.0617865 0)
(0.023336 0.160865 0)
(0.0538632 0.104989 0)
(0.0380848 0.0193691 0)
(0.00852657 -0.027412 0)
(0.0185015 -0.0555814 0)
(0.0207055 -0.084619 0)
(0.016776 -0.114532 0)
(0.0261598 -0.131402 0)
(0.0176309 -0.117676 0)
(0.0134152 -0.0154053 0)
(0.0235082 0.031739 0)
(0.0565032 0.0774565 0)
(0.042459 0.0702258 0)
(0.0385452 -0.0341216 0)
(-0.00889291 -0.0167094 0)
(-0.0101189 -0.0254341 0)
(-0.0299141 -0.00598175 0)
(-0.0212838 0.0361286 0)
(-0.0246696 0.0543435 0)
(0.0306364 0.0831706 0)
(0.0259607 0.0806883 0)
(0.0134017 -0.00229789 0)
(0.0701003 0.083702 0)
(0.00970332 0.208875 0)
(-0.00530351 0.0255656 0)
(0.0633018 0.0410057 0)
(0.0202912 -0.0304393 0)
(0.0466148 -0.0504818 0)
(0.052098 -0.0775018 0)
(0.0473306 -0.114576 0)
(0.032622 -0.140711 0)
(0.018339 -0.0859579 0)
(0.0284019 -0.0528242 0)
(0.0143788 0.0267949 0)
(0.104443 0.0525082 0)
(0.0235495 0.0732824 0)
(0.0360657 -0.00879102 0)
(0.020063 0.00775943 0)
(0.00741525 -0.013725 0)
(-0.00116919 0.0225969 0)
(0.00245376 -0.00299117 0)
(0.0086899 0.0415108 0)
(0.0317444 0.0336366 0)
(0.0500365 0.0407627 0)
(0.0496156 -0.00130935 0)
(0.0110777 0.0966553 0)
(0.0131351 0.0926457 0)
(0.129061 0.0330053 0)
(0.10997 0.0384676 0)
(0.0504666 -0.0199369 0)
(0.097943 -0.0674175 0)
(0.0749411 -0.0881215 0)
(0.0455881 -0.101638 0)
(0.0583065 -0.135873 0)
(0.0234387 -0.121351 0)
(-0.0230828 -0.0842087 0)
(0.0437287 -0.0380088 0)
(0.0060509 0.0692701 0)
(0.00573681 0.0903248 0)
(0.00550395 0.021363 0)
(0.0055687 0.0030583 0)
(0.00175861 0.00700046 0)
(0.000952462 0.0153327 0)
(0.0026035 0.0160095 0)
(0.000771451 0.0294178 0)
(0.0122723 0.0355287 0)
(0.0260441 0.0222446 0)
(0.00931575 0.0305071 0)
(0.0268927 0.0563595 0)
(0.0303904 0.0641313 0)
(0.111465 0.054253 0)
(0.0834745 0.00733094 0)
(0.0438083 -0.0164921 0)
(0.0872319 -0.0758405 0)
(0.121083 -0.0949555 0)
(0.0896957 -0.112675 0)
(0.0297745 -0.116243 0)
(0.0576415 -0.119477 0)
(0.085377 -0.0836423 0)
(0.0843222 -0.0545365 0)
(0.129341 0.00043066 0)
(0.00293947 0.0542616 0)
(0.013031 0.00266306 0)
(0.0119307 0.000849841 0)
(0.0157457 -0.00245016 0)
(0.0158946 0.0106255 0)
(0.0184246 0.00195062 0)
(0.023593 0.0229566 0)
(0.0232597 0.0207023 0)
(0.0382935 0.0325344 0)
(0.0363594 0.0380676 0)
(0.0506688 0.0572662 0)
(0.0581794 0.061673 0)
(0.0800178 0.0649929 0)
(0.0830935 0.0272392 0)
(0.0721436 -0.0355099 0)
(0.0980173 -0.00840583 0)
(0.131134 -0.0958456 0)
(0.112224 -0.100996 0)
(0.0739013 -0.108385 0)
(0.0722974 -0.111998 0)
(0.0757113 -0.105064 0)
(0.132305 -0.0809327 0)
(0.145267 0.00344615 0)
(0.00141308 0.0580033 0)
(0.00685085 0.00230841 0)
(0.00733969 0.00103522 0)
(0.0113201 -0.00113413 0)
(0.0139768 0.018427 0)
(0.0178712 0.00149895 0)
(0.0216287 0.0155862 0)
(0.0255713 0.00924599 0)
(0.0345621 0.0233486 0)
(0.0337455 0.016295 0)
(0.0507861 0.0340733 0)
(0.0513256 0.0229207 0)
(0.076261 0.0287779 0)
(0.0626212 0.0132922 0)
(0.102204 -0.0281823 0)
(0.105497 0.0235537 0)
(0.135229 -0.0955529 0)
(0.131839 -0.0884043 0)
(0.0417315 -0.0947229 0)
(0.103401 -0.095828 0)
(0.162599 -0.151068 0)
(0.194035 -0.119495 0)
(0.199397 -0.0379614 0)
(-0.00263755 0.0379427 0)
(0.0133878 -0.0077261 0)
(0.0143142 -0.0101788 0)
(0.0303899 -0.0121796 0)
(0.0260265 -0.00567271 0)
(0.0242157 -0.00902062 0)
(0.0332306 0.00264281 0)
(0.0368226 0.00272652 0)
(0.0442355 0.0182983 0)
(0.0464605 0.013525 0)
(0.0584105 0.0339098 0)
(0.0628606 0.0202239 0)
(0.0814856 0.0464348 0)
(0.0773446 0.00862802 0)
(0.125589 0.0112952 0)
(0.147359 -0.0296079 0)
(0.143883 -0.12252 0)
(0.158015 -0.126695 0)
(0.0830372 -0.089596 0)
(0.0954622 -0.126702 0)
(0.141263 -0.18252 0)
(0.246342 -0.124295 0)
(0.208139 -0.0447907 0)
(0.000808266 0.0369921 0)
(0.0116392 -0.00552615 0)
(0.0114519 -0.0151367 0)
(0.0216749 -0.0144697 0)
(0.0215904 -0.0216079 0)
(0.0307594 -0.014657 0)
(0.0307501 -0.00759979 0)
(0.0392749 -0.00995724 0)
(0.0423131 -1.77839e-05 0)
(0.050079 -0.00442406 0)
(0.0579008 0.0140406 0)
(0.0717525 -0.00197026 0)
(0.0774842 0.0310451 0)
(0.0858842 -0.0111456 0)
(0.110636 0.0167808 0)
(0.0908774 -0.0939594 0)
(0.164676 -0.0649477 0)
(0.184744 -0.161039 0)
(0.0497467 -0.0390432 0)
(0.114807 -0.171108 0)
(0.197063 -0.0869839 0)
(0.267679 -0.181607 0)
(0.222853 -0.0270475 0)
(0.00132208 0.0127654 0)
(0.0150231 -0.0283039 0)
(0.016038 -0.0311614 0)
(0.0273216 -0.030808 0)
(0.0281462 -0.0253714 0)
(0.0369347 -0.0252561 0)
(0.0403479 -0.016181 0)
(0.0502955 -0.017387 0)
(0.0522688 -0.00751634 0)
(0.0629438 -0.0092776 0)
(0.0630225 0.00707042 0)
(0.0812405 -0.00876816 0)
(0.0745749 0.0170591 0)
(0.100705 -0.0211117 0)
(0.0897764 -0.00480141 0)
(0.163517 -0.0701198 0)
(0.164018 -0.0443879 0)
(0.170262 -0.145813 0)
(0.10941 -0.145358 0)
(0.163245 -0.120156 0)
(0.160474 -0.076837 0)
(0.210166 -0.117018 0)
(0.353393 -0.0613646 0)
(0.00219199 0.00357193 0)
(0.0133271 -0.0355141 0)
(0.0138834 -0.0396095 0)
(0.0237385 -0.0391499 0)
(0.0248373 -0.0403033 0)
(0.0353391 -0.0396568 0)
(0.0359603 -0.0340759 0)
(0.0473401 -0.0333936 0)
(0.0468699 -0.0262593 0)
(0.0608067 -0.0220288 0)
(0.0547348 -0.0146731 0)
(0.0762618 -0.0217272 0)
(0.0550846 -0.00333152 0)
(0.092731 -0.0280361 0)
(0.140111 -0.0324511 0)
(0.157674 -0.0209707 0)
(0.137244 -0.130538 0)
(0.103112 -0.181392 0)
(0.132007 -0.15949 0)
(0.221889 -0.10935 0)
(0.209794 -0.141018 0)
(0.249887 -0.14168 0)
(0.292863 -0.110515 0)
(0.00182455 -0.0171255 0)
(0.015282 -0.051019 0)
(0.0145852 -0.0519219 0)
(0.0261563 -0.0519789 0)
(0.0263457 -0.0484986 0)
(0.0375053 -0.046786 0)
(0.0376712 -0.0398916 0)
(0.0495598 -0.0387555 0)
(0.0485732 -0.0340396 0)
(0.0634693 -0.0244589 0)
(0.0585704 -0.0217514 0)
(0.0807664 -0.0125439 0)
(0.0609163 -0.0091024 0)
(0.111015 0.00299438 0)
(0.181628 -0.0387184 0)
(0.16658 -0.079839 0)
(0.107837 -0.151852 0)
(0.172379 -0.127993 0)
(0.251269 -0.0779774 0)
(0.205867 -0.171514 0)
(0.139785 -0.10032 0)
(0.228791 -0.18972 0)
(0.363393 -0.0972338 0)
(0.00182482 -0.0312582 0)
(0.0124304 -0.0615335 0)
(0.012515 -0.0621882 0)
(0.0227802 -0.0632977 0)
(0.023365 -0.0633366 0)
(0.0343025 -0.0633244 0)
(0.0358506 -0.0577325 0)
(0.04805 -0.056484 0)
(0.0483558 -0.0525697 0)
(0.061871 -0.0442729 0)
(0.0647069 -0.0453305 0)
(0.0812652 -0.032667 0)
(0.0839108 -0.0494514 0)
(0.112673 -0.0121621 0)
(0.123203 -0.0510227 0)
(0.116548 -0.113193 0)
(0.150097 -0.0964255 0)
(0.206285 -0.113318 0)
(0.15721 -0.136948 0)
(0.247661 -0.218626 0)
(0.181921 -0.145076 0)
(0.220121 -0.0702386 0)
(0.295273 -0.1573 0)
(0.00129263 -0.0447475 0)
(0.0129322 -0.0712031 0)
(0.0114844 -0.0715244 0)
(0.0230597 -0.0726976 0)
(0.0220809 -0.0703198 0)
(0.0332785 -0.0713667 0)
(0.0331373 -0.0658128 0)
(0.0447248 -0.0641134 0)
(0.0453048 -0.059669 0)
(0.053064 -0.0585467 0)
(0.0610854 -0.0564431 0)
(0.0574145 -0.0537138 0)
(0.0873222 -0.0634136 0)
(0.140298 -0.0423403 0)
(0.130184 -0.0417153 0)
(0.190573 -0.109797 0)
(0.137407 -0.11253 0)
(0.160956 -0.167844 0)
(0.131345 -0.184445 0)
(0.230755 -0.243626 0)
(0.252306 -0.233088 0)
(0.146093 -0.0908627 0)
(0.248353 -0.169645 0)
(0.00105809 -0.0613794 0)
(0.0110183 -0.0830861 0)
(0.00922423 -0.0839891 0)
(0.0198354 -0.0856688 0)
(0.0180139 -0.0846341 0)
(0.0294123 -0.0869543 0)
(0.0285619 -0.0807244 0)
(0.0423325 -0.08308 0)
(0.0428287 -0.0679228 0)
(0.0549145 -0.0781969 0)
(0.0574329 -0.0512527 0)
(0.0644568 -0.0845621 0)
(0.0829008 0.00581604 0)
(0.165984 -0.0281638 0)
(0.108227 -0.0820409 0)
(0.119211 -0.110885 0)
(0.113649 -0.187399 0)
(0.152159 -0.128549 0)
(0.163092 -0.192875 0)
(0.212301 -0.0627262 0)
(0.259922 -0.219388 0)
(0.23569 -0.139168 0)
(0.311392 -0.188964 0)
(-0.000173636 -0.0668153 0)
(0.0121911 -0.085246 0)
(0.00896811 -0.0870779 0)
(0.0216269 -0.0882353 0)
(0.0175901 -0.0874013 0)
(0.0316127 -0.0910439 0)
(0.0262383 -0.0897141 0)
(0.0447065 -0.0914502 0)
(0.0363072 -0.0832679 0)
(0.0647998 -0.0859823 0)
(0.0475419 -0.0762155 0)
(0.0893512 -0.0996105 0)
(0.158869 -0.0257633 0)
(0.114048 -0.0621435 0)
(0.111032 -0.112629 0)
(0.11566 -0.144805 0)
(0.141433 -0.125773 0)
(0.183945 -0.109678 0)
(0.227289 -0.168944 0)
(0.201415 -0.120077 0)
(0.173564 -0.2451 0)
(0.189017 -0.155001 0)
(0.264862 -0.287127 0)
(-0.00049185 -0.0882675 0)
(0.0106434 -0.104019 0)
(0.00727852 -0.105328 0)
(0.0188801 -0.105781 0)
(0.0142105 -0.10611 0)
(0.0283117 -0.107592 0)
(0.0206997 -0.106634 0)
(0.0385456 -0.108028 0)
(0.0291125 -0.103939 0)
(0.0525471 -0.110358 0)
(0.0348849 -0.0870518 0)
(0.0697609 -0.0746026 0)
(0.118606 0.001154 0)
(0.114694 -0.112218 0)
(0.0849787 -0.0865788 0)
(0.117804 -0.118424 0)
(0.14583 -0.105051 0)
(0.153097 -0.147778 0)
(0.15182 -0.209385 0)
(0.0612116 -0.300378 0)
(0.221818 -0.26538 0)
(0.178372 -0.259806 0)
(0.224071 -0.321058 0)
(-0.00013666 -0.0826694 0)
(0.0104545 -0.0963862 0)
(0.00693938 -0.0989006 0)
(0.0187789 -0.098321 0)
(0.0133082 -0.101388 0)
(0.0290407 -0.101378 0)
(0.0184389 -0.105102 0)
(0.0426328 -0.107192 0)
(0.0203764 -0.106906 0)
(0.0644049 -0.0961867 0)
(0.080165 -0.102452 0)
(0.133418 -0.0919306 0)
(0.125995 -0.078597 0)
(0.106524 -0.150176 0)
(0.11753 -0.110684 0)
(0.0850096 -0.104359 0)
(0.106205 -0.132884 0)
(0.113039 -0.135125 0)
(0.113194 -0.216789 0)
(0.124033 -0.258329 0)
(0.261445 -0.185827 0)
(0.140927 -0.296997 0)
(0.193217 -0.230351 0)
(-0.000179029 -0.114509 0)
(0.00808176 -0.123987 0)
(0.00441339 -0.12704 0)