/*--------------------------------*- C++ -*----------------------------------*\
| =========                 |                                                 |
| \\      /  F ield         | foam-extend: Open Source CFD                    |
|  \\    /   O peration     | Version:     4.1                                |
|   \\  /    A nd           | Web:         http://www.foam-extend.org         |
|    \\/     M anipulation  |                                                 |
\*---------------------------------------------------------------------------*/
FoamFile
{
    version     2.0;
    format      ascii;
    class       volVectorField;
    location    "0.45";
    object      U_0;
}
// * * * * * * * * * * * * * * * * * * * * * * * * * * * * * * * * * * * * * //

dimensions      [0 1 -1 0 0 0 0];

internalField   nonuniform List<vector> 
2268
(
(0.047927 -0.00644168 0)
(0.054446 -0.00483002 0)
(0.128811 -0.00632201 0)
(0.15759 -0.00602741 0)
(0.22589 -0.00274282 0)
(0.251489 -0.00627171 0)
(0.296883 -0.00202284 0)
(0.310992 -0.000288479 0)
(0.345407 0.0029976 0)
(0.322492 0.0201205 0)
(0.25636 -0.0551965 0)
(0.255089 -0.0232562 0)
(0.280432 -0.0163512 0)
(0.275177 -0.00895209 0)
(0.277512 -0.00949546 0)
(0.251522 -0.00944412 0)
(0.26007 -0.0313136 0)
(0.260469 -0.0133338 0)
(0.214396 -0.021899 0)
(0.196562 0.0307647 0)
(0.132365 0.0439751 0)
(0.113876 0.0157254 0)
(0.144583 -0.000275793 0)
(0.0466893 -0.0177611 0)
(0.0551239 -0.0142068 0)
(0.129652 -0.0184325 0)
(0.158848 -0.0163438 0)
(0.221776 -0.0201253 0)
(0.254216 -0.0095992 0)
(0.306151 -0.013064 0)
(0.32219 -0.0109749 0)
(0.364203 -0.0115887 0)
(0.320148 0.00197407 0)
(0.265785 -0.0422023 0)
(0.28163 -0.00507682 0)
(0.29308 0.00217595 0)
(0.285833 0.0109563 0)
(0.288331 0.0195318 0)
(0.254139 0.0331625 0)
(0.268979 0.0228259 0)
(0.306169 0.0382308 0)
(0.262926 0.0459178 0)
(0.211538 0.00540617 0)
(0.103121 0.0295427 0)
(0.114388 0.099162 0)
(0.170829 0.0592399 0)
(0.0418232 -0.0305454 0)
(0.0537072 -0.0244056 0)
(0.130373 -0.0311512 0)
(0.160915 -0.0270866 0)
(0.214552 -0.0261092 0)
(0.269053 -0.0256 0)
(0.305518 -0.0178905 0)
(0.32535 -0.0130584 0)
(0.375325 0.00786467 0)
(0.295954 -0.0887299 0)
(0.251474 -0.050429 0)
(0.261772 -0.018429 0)
(0.262616 -0.0111062 0)
(0.254294 -0.00104754 0)
(0.262592 0.00422538 0)
(0.236301 0.0163604 0)
(0.251383 0.0666473 0)
(0.263241 0.0283447 0)
(0.236417 0.0408893 0)
(0.197449 0.0172215 0)
(0.167608 0.0456584 0)
(0.118409 0.0845366 0)
(0.142199 0.0721545 0)
(0.0355402 -0.040283 0)
(0.0531951 -0.0350006 0)
(0.135651 -0.0441746 0)
(0.164478 -0.0357705 0)
(0.218075 -0.0463227 0)
(0.27507 -0.0300739 0)
(0.297033 -0.0289315 0)
(0.356971 -0.0291899 0)
(0.318945 -0.00968341 0)
(0.247511 -0.0799196 0)
(0.243816 -0.0344607 0)
(0.2188 -0.010403 0)
(0.216684 0.00479503 0)
(0.197833 0.0198547 0)
(0.207468 0.0278688 0)
(0.195356 0.0210655 0)
(0.203492 0.0701831 0)
(0.206166 0.0202849 0)
(0.202587 0.0259673 0)
(0.182054 0.0229425 0)
(0.140014 0.0669797 0)
(0.111226 0.0938164 0)
(0.152491 0.116537 0)
(0.0300652 -0.0515891 0)
(0.0527756 -0.0481188 0)
(0.137671 -0.0576279 0)
(0.166982 -0.0457913 0)
(0.225671 -0.0534593 0)
(0.262059 -0.0442872 0)
(0.290767 -0.0361587 0)
(0.357444 -0.0145903 0)
(0.290283 -0.0943676 0)
(0.218478 -0.0628719 0)
(0.217794 -0.035505 0)
(0.194051 -0.00547674 0)
(0.190989 0.00456768 0)
(0.176661 0.0114595 0)
(0.176586 0.0304904 0)
(0.158448 0.0211086 0)
(0.151732 0.0513675 0)
(0.142015 0.0312208 0)
(0.125711 0.0491634 0)
(0.139841 0.0631373 0)
(0.139114 0.071696 0)
(0.109527 0.129201 0)
(0.146616 0.134483 0)
(0.0303734 -0.0597288 0)
(0.0587154 -0.0602507 0)
(0.141673 -0.0716222 0)
(0.168391 -0.0565743 0)
(0.218216 -0.0697575 0)
(0.25562 -0.0438109 0)
(0.317201 -0.0588606 0)
(0.275303 -0.0339202 0)
(0.217125 -0.0852638 0)
(0.214381 -0.0517992 0)
(0.198757 -0.0239806 0)
(0.183975 0.00264807 0)
(0.181984 0.0194084 0)
(0.162072 0.0398953 0)
(0.158156 0.0451005 0)
(0.143716 0.0350161 0)
(0.135061 0.0788313 0)
(0.130647 0.0331569 0)
(0.128135 0.0924418 0)
(0.105301 0.0576229 0)
(0.118862 0.0904179 0)
(0.105712 0.157238 0)
(0.142292 0.177196 0)
(0.0350467 -0.072776 0)
(0.0636105 -0.0744849 0)
(0.13816 -0.0834254 0)
(0.161546 -0.0632306 0)
(0.21822 -0.07494 0)
(0.25355 -0.0710532 0)
(0.271202 -0.0314735 0)
(0.23552 -0.100283 0)
(0.201997 -0.0764097 0)
(0.210669 -0.0511421 0)
(0.191381 -0.0235806 0)
(0.187976 0.00320257 0)
(0.182774 0.0230451 0)
(0.163687 0.0316634 0)
(0.140327 0.0463308 0)
(0.144583 0.035323 0)
(0.122229 0.0549321 0)
(0.118965 0.042719 0)
(0.104394 0.06539 0)
(0.0972799 0.0922195 0)
(0.144888 0.0894629 0)
(0.10407 0.177001 0)
(0.141014 0.190359 0)
(0.0395033 -0.0827752 0)
(0.0688587 -0.0843944 0)
(0.138905 -0.095215 0)
(0.159899 -0.0781326 0)
(0.214219 -0.0958425 0)
(0.259363 -0.0489179 0)
(0.217168 -0.0726568 0)
(0.212334 -0.10752 0)
(0.201699 -0.0776969 0)
(0.210625 -0.0483319 0)
(0.193248 -0.0146404 0)
(0.188122 0.00770666 0)
(0.175377 0.0424104 0)
(0.162588 0.0329265 0)
(0.148375 0.0614006 0)
(0.140909 0.0439299 0)
(0.127785 0.0313665 0)
(0.126255 0.032253 0)
(0.136998 0.0309158 0)
(0.099105 0.107474 0)
(0.129764 0.0776482 0)
(0.112059 0.172661 0)
(0.115389 0.248564 0)
(-3.01784 0.532468 0)
(-3.7204 0.144049 0)
(-3.77569 -0.251781 0)
(-3.32348 -0.38234 0)
(-3.08057 -0.292224 0)
(-2.76512 -0.328879 0)
(-2.60673 -0.214425 0)
(-2.44896 -0.244513 0)
(-2.35368 -0.156443 0)
(-2.23458 -0.169042 0)
(-2.13199 -0.12104 0)
(-1.98322 -0.175408 0)
(-1.90585 -0.1792 0)
(-1.78008 -0.224912 0)
(-1.77172 -0.248892 0)
(-1.96962 -0.127591 0)
(-1.57406 0.0245257 0)
(-1.24039 -0.357602 0)
(-0.494077 -0.175606 0)
(-2.63716 1.07382 0)
(-2.36054 1.0637 0)
(-1.08499 0.288004 0)
(-1.10094 -0.0745936 0)
(-0.79031 -0.208831 0)
(-0.630444 -0.0542844 0)
(-0.576523 -0.0343206 0)
(-0.922338 0.0300297 0)
(-1.12921 -0.00407304 0)
(-1.17981 -0.0153436 0)
(-1.15499 -0.110845 0)
(-1.01825 -0.141699 0)
(-0.96817 -0.151134 0)
(-0.980481 -0.0407416 0)
(-1.36138 -0.265434 0)
(-1.80638 0.0786121 0)
(-1.70654 0.290613 0)
(-0.956225 -0.433744 0)
(-0.27325 -0.628181 0)
(-1.94211 1.35968 0)
(-1.03274 0.783732 0)
(-0.576137 -0.516618 0)
(-1.00311 -0.322596 0)
(-0.852282 -0.406983 0)
(-0.72196 -0.0393314 0)
(-0.644895 0.0161339 0)
(-0.772838 0.114696 0)
(-0.89898 -0.000952389 0)
(-1.01092 -0.0971455 0)
(-0.93873 -0.257644 0)
(-0.799034 -0.305238 0)
(-0.655332 -0.336952 0)
(-0.602006 -0.120161 0)
(-1.20153 -0.210238 0)
(-1.66159 -0.00827916 0)
(-1.6376 0.157643 0)
(-0.835866 -0.320919 0)
(0.0307048 -0.7355 0)
(-1.54825 1.73928 0)
(0.0420102 1.08231 0)
(1.22701 -0.363957 0)
(0.761039 -0.385155 0)
(0.23543 -0.278926 0)
(0.474623 -0.137368 0)
(0.330507 0.0535928 0)
(-0.372937 0.346577 0)
(-0.392093 0.131065 0)
(-0.504269 0.0832302 0)
(-0.53033 -0.0387894 0)
(-0.553653 -0.15048 0)
(-0.511516 -0.248217 0)
(-0.333941 -0.0573485 0)
(-0.388279 0.074743 0)
(-1.15049 0.110052 0)
(-0.895583 -0.149579 0)
(-0.900217 -0.322317 0)
(0.151777 -1.01625 0)
(-0.971094 1.61634 0)
(1.16162 0.48471 0)
(2.07017 -0.230975 0)
(1.8827 -0.466141 0)
(1.35131 -0.199507 0)
(1.24887 -0.126754 0)
(1.06585 0.33639 0)
(0.594162 0.395937 0)
(-0.126212 0.174704 0)
(-0.214337 -0.0429678 0)
(-0.0250744 -0.211663 0)
(-0.131162 -0.238659 0)
(-0.29986 -0.478331 0)
(-0.34889 -0.2389 0)
(0.383377 -0.0282186 0)
(-0.57052 0.415357 0)
(-0.279587 -0.243591 0)
(-0.801726 -0.304024 0)
(0.353832 -1.1646 0)
(-0.80928 2.0079 0)
(2.27348 0.398509 0)
(2.10681 -0.119878 0)
(1.55388 -0.336013 0)
(1.20245 -0.237246 0)
(1.41022 -0.16403 0)
(1.45186 0.252888 0)
(1.10477 0.703466 0)
(0.528463 0.41204 0)
(-0.0314367 0.150062 0)
(0.121431 -0.135915 0)
(-0.0649402 -0.130638 0)
(-0.145791 -0.525881 0)
(-0.0388772 -0.306755 0)
(0.345854 0.0648664 0)
(0.0244263 0.388961 0)
(0.0351433 -0.115678 0)
(-0.756385 -0.357182 0)
(0.359859 -1.32257 0)
(-0.0484631 2.13142 0)
(1.9562 0.213015 0)
(1.7449 -0.289554 0)
(1.12273 -0.400497 0)
(1.16566 -0.413989 0)
(1.44588 -0.0967065 0)
(1.76466 0.388526 0)
(1.43809 0.601789 0)
(0.641432 0.602726 0)
(0.341921 0.303334 0)
(0.127277 -0.159182 0)
(-0.0471084 -0.12383 0)
(-0.0445538 -0.462555 0)
(0.0536448 -0.390951 0)
(0.239836 0.00973249 0)
(0.431669 0.361554 0)
(0.479039 -0.0130556 0)
(-0.705359 -0.281135 0)
(0.419677 -1.35919 0)
(0.306751 0.644515 0)
(1.05291 0.138707 0)
(0.99326 -0.24625 0)
(0.908772 -0.438374 0)
(0.862841 -0.38793 0)
(1.13429 0.0284743 0)
(1.73171 0.431463 0)
(1.66173 0.833956 0)
(1.06401 0.858353 0)
(0.827424 0.404799 0)
(0.382115 -0.0532563 0)
(-0.112017 -0.100965 0)
(0.121711 -0.582545 0)
(0.193055 -0.4755 0)
(0.232784 -0.0190666 0)
(0.473721 0.396143 0)
(0.605587 0.106523 0)
(-0.58861 -0.302023 0)
(0.45544 -1.40566 0)
(0.0395688 -0.106238 0)
(0.063067 -0.104416 0)
(0.131847 -0.111036 0)
(0.138511 -0.0773745 0)
(0.228235 -0.0968844 0)
(0.189753 -0.099947 0)
(0.185902 -0.117028 0)
(0.21902 -0.0991353 0)
(0.207718 -0.0733694 0)
(0.219358 -0.0464237 0)
(0.206524 -0.0120068 0)
(0.215623 0.0146727 0)
(0.190528 0.0466848 0)
(0.182239 0.0465267 0)
(0.162251 0.0588791 0)
(0.143472 0.0473374 0)
(0.124526 0.0652439 0)
(0.10053 0.059201 0)
(0.11354 0.0942171 0)
(0.114887 0.0624535 0)
(0.196807 0.100802 0)
(0.248058 0.182626 0)
(0.17843 0.300779 0)
(0.0443856 -0.127053 0)
(0.0487216 -0.126524 0)
(0.148174 -0.12942 0)
(0.129118 -0.135109 0)
(0.136296 -0.128594 0)
(0.177185 -0.172222 0)
(0.197254 -0.114949 0)
(0.220002 -0.119726 0)
(0.229952 -0.0924887 0)
(0.235562 -0.051298 0)
(0.23651 -0.0137666 0)
(0.235979 0.0208673 0)
(0.215973 0.0367833 0)
(0.208343 0.053592 0)
(0.187759 0.0518255 0)
(0.180536 0.0738071 0)
(0.156678 0.0730372 0)
(0.168795 0.102629 0)
(0.143792 0.0875298 0)
(0.136386 0.108316 0)
(0.200913 0.0750566 0)
(0.364358 0.122969 0)
(0.256396 0.18917 0)
(0.0132359 -0.153028 0)
(0.0224412 -0.157076 0)
(0.0478621 -0.154077 0)
(0.0567458 -0.187993 0)
(0.0849069 -0.152147 0)
(0.0779025 -0.155986 0)
(0.0875663 -0.153596 0)
(0.0876794 -0.129497 0)
(0.0962368 -0.0891835 0)
(0.0888357 -0.0547414 0)
(0.119269 -0.0143493 0)
(0.11914 0.0370276 0)
(0.162147 0.0708372 0)
(0.179915 0.0774187 0)
(0.172503 0.0811565 0)
(0.155523 0.0808387 0)
(0.166141 0.0771471 0)
(0.147996 0.0827338 0)
(0.148959 0.0524706 0)
(0.15295 0.0843955 0)
(0.212431 0.0579804 0)
(0.336893 0.11174 0)
(0.325592 0.0877972 0)
(0.0060177 -0.16162 0)
(0.00841741 -0.161224 0)
(0.0227918 -0.16414 0)
(0.0273293 -0.174057 0)
(0.0307316 -0.155852 0)
(0.0420831 -0.168492 0)
(0.0344713 -0.132498 0)
(0.0241658 -0.123864 0)
(0.00233992 -0.0918998 0)
(-0.0365294 -0.0690722 0)
(-0.0609591 -0.0366943 0)
(-0.085573 -0.0144632 0)
(-0.0430763 0.027702 0)
(0.0228795 0.046132 0)
(0.0686687 0.0828162 0)
(0.0493063 0.0821704 0)
(0.0716392 0.0795702 0)
(0.0998104 0.0356472 0)
(0.129436 0.0642362 0)
(0.157032 0.051943 0)
(0.209683 0.076068 0)
(0.265714 0.0383801 0)
(0.283532 0.0930759 0)
(0.00184313 -0.168896 0)
(0.00997236 -0.175931 0)
(0.0168878 -0.175181 0)
(0.0232323 -0.190563 0)
(0.0279555 -0.174545 0)
(0.0304092 -0.154478 0)
(0.0244188 -0.137044 0)
(0.016022 -0.0983455 0)
(-0.00406088 -0.0389112 0)
(-0.0437274 0.00953559 0)
(-0.0845338 0.0196528 0)
(-0.0791126 -0.0362739 0)
(-0.197389 -0.0404813 0)
(-0.173954 -0.0151737 0)
(-0.171143 0.0520399 0)
(-0.263747 0.0725152 0)
(-0.158148 0.0271653 0)
(-0.0858312 0.0233461 0)
(0.0663414 0.00508041 0)
(0.0828566 -0.000778216 0)
(0.159991 0.0013627 0)
(0.352348 -0.0358594 0)
(0.256666 -0.0145573 0)
(0.00197188 -0.175485 0)
(0.00955548 -0.174555 0)
(0.00570094 -0.180714 0)
(0.00944337 -0.177694 0)
(0.000544105 -0.164908 0)
(-0.0151405 -0.161736 0)
(-0.0142017 -0.119621 0)
(-0.0405284 -0.0931614 0)
(-0.0451748 -0.0310562 0)
(-0.0754726 0.0124209 0)
(-0.087302 0.0341026 0)
(-0.0462386 0.0545306 0)
(-0.199324 -0.0333372 0)
(-0.248088 0.135304 0)
(-0.277406 0.0344461 0)
(-0.340399 0.0730848 0)
(-0.23761 -0.0118106 0)
(-0.215077 -0.0908371 0)
(0.0359324 -0.112521 0)
(0.057116 -0.0404222 0)
(0.339565 0.0162156 0)
(0.345506 -0.0279492 0)
(0.272788 -0.0801503 0)
(-0.00136263 -0.180795 0)
(-0.0224373 -0.175843 0)
(-0.0562483 -0.169995 0)
(-0.0324642 -0.183 0)
(-0.0780641 -0.147052 0)
(-0.0848997 -0.149107 0)
(-0.0791526 -0.0992335 0)
(-0.12853 -0.0588485 0)
(-0.13978 -0.00819304 0)
(-0.147268 -0.0195183 0)
(-0.16213 0.0494965 0)
(-0.126369 0.051588 0)
(-0.154641 0.0338568 0)
(-0.225491 0.235659 0)
(-0.151962 0.120041 0)
(-0.167939 0.137218 0)
(-0.0705697 -0.0974505 0)
(-0.145519 -0.237254 0)
(0.144929 -0.21242 0)
(0.11259 -0.149738 0)
(0.250028 -0.170753 0)
(0.24263 -0.267307 0)
(0.262089 -0.0960365 0)
(-0.00725916 -0.164676 0)
(-0.0505428 -0.147749 0)
(-0.114227 -0.148268 0)
(-0.055295 -0.154247 0)
(-0.114872 -0.130104 0)
(-0.105568 -0.157337 0)
(-0.0789009 -0.0895304 0)
(-0.175021 -0.0424558 0)
(-0.224697 -0.0134614 0)
(-0.152673 0.0282798 0)
(-0.13941 0.0830676 0)
(-0.113488 0.0839342 0)
(-0.173854 0.0701218 0)
(-0.229126 0.135983 0)
(-0.110152 0.151962 0)
(-0.15113 -0.0470076 0)
(0.00984794 -0.15968 0)
(-0.0146608 -0.30139 0)
(0.162122 -0.248675 0)
(0.108892 -0.293084 0)
(0.063988 -0.309427 0)
(0.0861699 -0.30582 0)
(0.0402983 -0.132828 0)
(-0.0151248 -0.1172 0)
(-0.068333 -0.149712 0)
(-0.1278 -0.153407 0)
(-0.0679214 -0.114183 0)
(-0.129189 -0.169446 0)
(-0.125762 -0.108102 0)
(-0.0973289 -0.11111 0)
(-0.149083 0.00615494 0)
(-0.164671 0.00744083 0)
(-0.153746 0.0956816 0)
(-0.219086 -0.00585582 0)
(-0.199806 0.0608733 0)
(-0.113152 0.0259784 0)
(-0.140378 0.205186 0)
(0.0136808 0.161971 0)
(0.0127211 0.00270011 0)
(0.0334008 -0.1329 0)
(0.026577 -0.318011 0)
(0.0405599 -0.300562 0)
(0.194412 -0.409972 0)
(-0.00727287 -0.0745424 0)
(0.0280456 -0.192084 0)
(0.0166315 -0.20722 0)
(-0.0655324 -0.0890215 0)
(-0.061751 -0.129412 0)
(-0.0694511 -0.149173 0)
(-0.061158 -0.0911398 0)
(-0.106173 -0.162475 0)
(-0.0914934 -0.110312 0)
(-0.111006 -0.0408469 0)
(-0.12909 -0.00398145 0)
(-0.0973502 0.00564979 0)
(-0.166784 -0.00211391 0)
(-0.228031 -0.0511961 0)
(-0.167417 0.0967366 0)
(-0.0982555 -0.0123801 0)
(-0.142092 0.111346 0)
(-0.0647099 -0.0691824 0)
(0.00647248 -0.0683196 0)
(0.0263493 -0.180812 0)
(-0.0345869 -0.277899 0)
(-0.182177 -0.30669 0)
(-0.165834 -0.228336 0)
(-0.198559 -0.222831 0)
(0.0168382 -0.11177 0)
(-0.134605 -0.280601 0)
(-0.0591907 -0.0465875 0)
(-0.0462933 -0.0812841 0)
(-0.0558094 -0.142398 0)
(-0.0364778 -0.0763207 0)
(-0.0914745 -0.126069 0)
(-0.0643149 -0.0947159 0)
(-0.14378 -0.0763898 0)
(-0.128088 0.00272827 0)
(-0.0896762 0.0444265 0)
(-0.129577 0.0575563 0)
(-0.129329 0.00752263 0)
(-0.222845 0.103398 0)
(-0.189336 0.00134702 0)
(-0.100433 -0.00347784 0)
(-0.107907 -0.0246448 0)
(-0.0967111 -0.0213276 0)
(-0.160428 -0.138777 0)
(-0.122932 -0.170906 0)
(-0.292741 -0.166978 0)
(-0.436753 -0.321109 0)
(-0.402062 -0.279399 0)
(-0.45244 -0.233088 0)
(-0.353511 -0.272974 0)
(-0.0706127 -0.0415115 0)
(-0.0149367 -0.087101 0)
(-0.0406889 -0.161957 0)
(-0.0451074 -0.0766516 0)
(-0.0598669 -0.114647 0)
(-0.0786996 -0.116614 0)
(-0.195654 -0.0678171 0)
(-0.134736 0.0530447 0)
(-0.0656747 0.0741032 0)
(-0.194948 -0.00125979 0)
(-0.191725 0.0356625 0)
(-0.136787 0.0310699 0)
(-0.167922 0.0586052 0)
(-0.16864 -0.0332427 0)
(-0.110535 -0.048721 0)
(-0.199279 -0.118206 0)
(-0.232449 -0.106524 0)
(-0.19614 -0.184234 0)
(-0.389986 -0.117136 0)
(-0.445371 -0.15339 0)
(-0.405278 -0.0985187 0)
(-0.766239 -0.235996 0)
(-0.933458 -0.0580837 0)
(-0.07496 0.00344655 0)
(0.00456275 -0.064284 0)
(-0.0405766 -0.143949 0)
(-0.0203037 -0.00252556 0)
(-0.0909606 -0.105914 0)
(-0.0883563 -0.0609091 0)
(-0.126427 -0.0586155 0)
(-0.115889 0.0993993 0)
(-0.177123 0.0461815 0)
(-0.182077 0.0201377 0)
(-0.097272 0.132738 0)
(-0.150092 0.0670585 0)
(-0.164439 0.104707 0)
(-0.199184 -0.0334179 0)
(-0.206462 -0.0428687 0)
(-0.160111 -0.082596 0)
(-0.189494 -0.0669734 0)
(-0.093094 -0.210113 0)
(-0.339629 -0.172536 0)
(-0.456487 -0.052049 0)
(-0.361045 -0.000932107 0)
(-0.446881 0.0741223 0)
(-0.384181 0.405434 0)
(-0.00220996 0.0228959 0)
(0.0430375 -0.131507 0)
(-0.0312513 -0.134641 0)
(-0.112105 -0.0599243 0)
(-0.082608 -0.102881 0)
(-0.169607 -0.0526927 0)
(-0.174049 0.00648666 0)
(-0.116203 0.00514554 0)
(-0.209688 0.0130662 0)
(-0.129881 0.0723607 0)
(-0.158833 0.0995011 0)
(-0.0773116 0.0739772 0)
(-0.100777 0.136576 0)
(-0.232018 -0.0490125 0)
(-0.11117 -0.0169029 0)
(-0.212737 -0.0999871 0)
(-0.307063 -0.123358 0)
(-0.219924 -0.043657 0)
(-0.194114 -0.244569 0)
(-0.260062 -0.0357234 0)
(-0.246006 -0.0016615 0)
(-0.322545 0.150593 0)
(-0.248322 0.264643 0)
(-0.0257684 -0.0307041 0)
(0.0121397 -0.174269 0)
(-0.0595069 -0.140714 0)
(-0.0558705 -0.0834518 0)
(-0.0482494 -0.0830442 0)
(-0.0761365 -0.0721399 0)
(-0.173622 0.0101323 0)
(-0.167385 -0.0086913 0)
(-0.1232 0.0327075 0)
(-0.135979 0.030589 0)
(-0.113187 0.0451418 0)
(-0.101006 0.0625822 0)
(-0.143714 0.0358259 0)
(-0.115494 0.0220821 0)
(-0.0736281 0.0985377 0)
(-0.187842 -0.113684 0)
(-0.113303 -0.0293623 0)
(-0.215433 -0.0116817 0)
(-0.21531 -0.0677462 0)
(-0.140552 -0.0115531 0)
(-0.15841 0.0190428 0)
(-0.156071 0.130972 0)
(-0.139234 0.213313 0)
(-0.00586705 0.0278015 0)
(-0.0092478 -0.120651 0)
(-0.0223193 -0.0605259 0)
(-0.0549413 -0.00645734 0)
(-0.0851321 -0.0189102 0)
(-0.125148 -0.0266555 0)
(-0.129544 -0.0172867 0)
(-0.0937981 0.0924815 0)
(-0.136245 0.00790576 0)
(-0.121721 0.0254542 0)
(-0.141703 0.062679 0)
(-0.100807 0.101319 0)
(-0.12401 0.0693062 0)
(-0.109403 -0.0185135 0)
(-0.148349 -0.0613147 0)
(-0.142032 -0.00739363 0)
(-0.143839 -0.050933 0)
(-0.184884 -0.0713212 0)
(-0.0517792 -0.0202679 0)
(-0.117755 -0.0711514 0)
(-0.0858712 0.0480954 0)
(-0.0584665 0.127209 0)
(0.0223618 0.137953 0)
(-0.00331083 0.000666363 0)
(0.000545125 -0.126609 0)
(-0.0404658 -0.0626654 0)
(-0.0180566 -0.0656202 0)
(-0.0475059 -0.0314335 0)
(-0.068161 0.00248466 0)
(-0.105995 0.0834164 0)
(-0.123115 0.0689874 0)
(-0.176121 0.0710193 0)
(-0.0873783 0.0152081 0)
(-0.0647954 0.0425562 0)
(-0.0716089 0.102478 0)
(-0.174301 0.0297069 0)
(-0.175778 0.0313313 0)
(-0.0661957 -0.05987 0)
(-0.0922329 0.0807702 0)
(-0.0966805 -0.110292 0)
(-0.0737884 -0.031058 0)
(-0.0755578 -0.0795565 0)
(-0.0598065 -0.0756989 0)
(-0.00485956 0.0389121 0)
(-0.0113631 0.0951215 0)
(0.0136236 0.183685 0)
(-0.0510463 0.0173135 0)
(-0.0163919 -0.0629185 0)
(-0.0191358 -0.0161508 0)
(-0.0182615 -0.0166121 0)
(-0.0261717 -0.0164633 0)
(-0.0363183 0.011512 0)
(-0.101392 0.0274954 0)
(-0.0530077 0.0641901 0)
(-0.102189 0.0263226 0)
(-0.134614 0.0644946 0)
(-0.0791074 0.0419928 0)
(-0.0679937 0.127746 0)
(-0.0609227 0.0315356 0)
(-0.0777292 0.0792932 0)
(-0.0869571 -0.0685786 0)
(-0.121119 -0.0940879 0)
(-0.125871 -0.0811391 0)
(-0.0389207 -0.0983234 0)
(-0.0272871 -0.103729 0)
(-0.00840379 -0.0674712 0)
(0.0169448 -0.00964406 0)
(0.0675953 0.0700672 0)
(0.0400844 0.137463 0)
(-0.0651934 0.0727111 0)
(-0.0107544 -0.0536519 0)
(-0.0480907 -0.0298477 0)
(-0.0407058 -0.0143312 0)
(-0.0308558 0.00108268 0)
(-0.0511369 0.0193909 0)
(-0.0674752 0.0820299 0)
(-0.0544828 0.135442 0)
(-0.0595092 0.0226904 0)
(-0.0487811 -0.0213434 0)
(-0.0836454 0.103759 0)
(-0.0398009 0.0944289 0)
(-0.133098 0.0907874 0)
(-0.140254 0.0220947 0)
(-0.0633063 -0.026845 0)
(-0.0556534 -0.0670588 0)
(-0.0497704 -0.0397957 0)
(-0.0298023 -0.0866736 0)
(-0.0111963 -0.104201 0)
(0.00949229 -0.0990158 0)
(0.0363423 -0.0157662 0)
(0.02921 0.0782037 0)
(0.00628949 0.170809 0)
(-0.0222902 0.0467136 0)
(-0.00944602 -0.0556382 0)
(-0.0396455 -0.0355278 0)
(-0.00967335 0.0201988 0)
(-0.0374746 -0.0251569 0)
(-0.0161353 0.0709615 0)
(-0.011338 0.0495176 0)
(-0.0065494 0.0961561 0)
(-0.090128 0.0608275 0)
(-0.0484521 -0.00416943 0)
(-0.044865 0.111765 0)
(-0.0631838 0.167748 0)
(-0.0347265 0.0520644 0)
(-0.0226948 0.0568295 0)
(-0.0537259 -0.0406441 0)
(-0.051204 -0.0317815 0)
(-0.0272301 -0.0751958 0)
(-0.0164656 -0.102951 0)
(-0.00379154 -0.137337 0)
(0.0181608 -0.109745 0)
(0.0212842 -0.0346766 0)
(0.0383791 0.0582366 0)
(0.0565693 0.132659 0)
(-0.0152608 0.123309 0)
(0.00721462 -0.0476287 0)
(-0.0479141 0.00110903 0)
(-0.0106711 -0.0123011 0)
(-0.0301461 0.00585657 0)
(-0.00518125 0.0436697 0)
(-0.056649 0.0614569 0)
(0.0191897 0.1166 0)
(0.00404014 -0.00121732 0)
(-0.00704697 -0.0221704 0)
(0.0582336 0.0637237 0)
(-0.00393933 0.13613 0)
(-0.071101 0.132797 0)
(-0.000237168 0.0093888 0)
(-0.0264061 -0.0529786 0)
(-0.0091618 -0.0408615 0)
(-0.00124272 -0.0791411 0)
(0.00548531 -0.108032 0)
(0.012321 -0.140592 0)
(0.0114507 -0.112497 0)
(0.0146876 -0.0409376 0)
(-0.0101045 0.0671657 0)
(0.0718058 0.094374 0)
(-0.0457307 0.168856 0)
(-0.0170861 -0.0493502 0)
(-0.0530938 -0.00997399 0)
(-0.00202696 -0.0225239 0)
(-0.0464702 -0.00917353 0)
(-0.00183404 0.0576218 0)
(-0.0180214 0.0736755 0)
(0.0791368 0.140044 0)
(0.0311385 0.0973588 0)
(0.0205352 -0.00958011 0)
(-0.0020131 0.0600653 0)
(0.0220064 0.159234 0)
(0.0526956 0.103092 0)
(0.0379704 0.0170899 0)
(0.00808109 -0.0293024 0)
(0.01807 -0.0574827 0)
(0.0200988 -0.086504 0)
(0.0158015 -0.116464 0)
(0.0254349 -0.133588 0)
(0.0163671 -0.119499 0)
(0.0118251 -0.0168449 0)
(0.022149 0.0297856 0)
(0.0547109 0.0762723 0)
(0.0434061 0.0689381 0)
(0.0387136 -0.0356448 0)
(-0.00930825 -0.0180952 0)
(-0.010777 -0.0273257 0)
(-0.0301966 -0.00750422 0)
(-0.022162 0.0339696 0)
(-0.0254844 0.0519269 0)
(0.0296658 0.0812144 0)
(0.0255545 0.0784308 0)
(0.0135908 -0.00410166 0)
(0.0687519 0.082101 0)
(0.00867766 0.207086 0)
(-0.00534362 0.0241288 0)
(0.0626647 0.0392907 0)
(0.019701 -0.0320324 0)
(0.045805 -0.0515281 0)
(0.0513055 -0.0798293 0)
(0.0464917 -0.116424 0)
(0.031838 -0.142736 0)
(0.0177591 -0.0874829 0)
(0.0269852 -0.0539876 0)
(0.0129373 0.0254927 0)
(0.102574 0.051516 0)
(0.0231519 0.0710769 0)
(0.0352458 -0.0112242 0)
(0.0197705 0.00534098 0)
(0.00767874 -0.0158402 0)
(-0.00146926 0.0204634 0)
(0.00216233 -0.00504584 0)
(0.00852081 0.0399669 0)
(0.0311262 0.0319953 0)
(0.0497843 0.0394098 0)
(0.0488099 -0.00264996 0)
(0.0100209 0.0952803 0)
(0.0129563 0.091209 0)
(0.128894 0.0313323 0)
(0.109329 0.0368156 0)
(0.0504214 -0.0214816 0)
(0.0971648 -0.0692436 0)
(0.0733885 -0.0900197 0)
(0.0449443 -0.103784 0)
(0.0576727 -0.137669 0)
(0.022545 -0.122871 0)
(-0.0245263 -0.0862098 0)
(0.0423555 -0.0396525 0)
(0.00382571 0.0672829 0)
(0.00576505 0.0879773 0)
(0.0055105 0.0191336 0)
(0.00533896 0.00141375 0)
(0.00138572 0.00503756 0)
(0.000741625 0.0133843 0)
(0.00239873 0.0140888 0)
(0.000425541 0.0274224 0)
(0.0118794 0.0335456 0)
(0.0260277 0.0209026 0)
(0.00893082 0.0285707 0)
(0.0266556 0.0548472 0)
(0.0301891 0.0619404 0)
(0.11025 0.0527349 0)
(0.0823511 0.00535687 0)
(0.0433487 -0.0182557 0)
(0.0863983 -0.0784497 0)
(0.119804 -0.0965802 0)
(0.0886904 -0.11499 0)
(0.0293162 -0.118059 0)
(0.0565309 -0.121718 0)
(0.0837476 -0.085427 0)
(0.0826053 -0.0563222 0)
(0.12752 -0.00103388 0)
(0.00290467 0.0520716 0)
(0.0129555 0.000468044 0)
(0.0118875 -0.00128777 0)
(0.0157294 -0.00457696 0)
(0.0156338 0.0087099 0)
(0.0180921 -0.000148372 0)
(0.0233261 0.0210485 0)
(0.023308 0.0186445 0)
(0.0380088 0.0307899 0)
(0.0356116 0.0356761 0)
(0.0500337 0.0555441 0)
(0.057689 0.0592482 0)
(0.0791639 0.0631724 0)
(0.0823568 0.0251179 0)
(0.0718713 -0.0372845 0)
(0.0971926 -0.0102768 0)
(0.130223 -0.0976042 0)
(0.111314 -0.103064 0)
(0.0730446 -0.110116 0)
(0.0711537 -0.113669 0)
(0.0744773 -0.106792 0)
(0.131169 -0.0822093 0)
(0.143623 0.002217 0)
(0.00140776 0.0559101 0)
(0.00680341 0.000211731 0)
(0.00713123 -0.00106976 0)
(0.0111473 -0.00326082 0)
(0.0138065 0.0163038 0)
(0.0176612 -0.000503173 0)
(0.0213519 0.0136343 0)
(0.0253467 0.00725034 0)
(0.0342166 0.0210973 0)
(0.0334363 0.0142022 0)
(0.0504018 0.0323063 0)
(0.0509269 0.0210594 0)
(0.0756298 0.0275414 0)
(0.0620059 0.0114781 0)
(0.101691 -0.0297513 0)
(0.104611 0.0204836 0)
(0.134267 -0.0971342 0)
(0.130971 -0.0906664 0)
(0.0411469 -0.0963863 0)
(0.102398 -0.0977885 0)
(0.161073 -0.15262 0)
(0.192665 -0.121005 0)
(0.197896 -0.0392131 0)
(-0.00262579 0.0357914 0)
(0.013321 -0.00989038 0)
(0.0142152 -0.0122721 0)
(0.030343 -0.0141757 0)
(0.025911 -0.00765692 0)
(0.0240495 -0.0109842 0)
(0.0329617 0.000706937 0)
(0.0365594 0.000841181 0)
(0.0438522 0.0164551 0)
(0.0462203 0.0116994 0)
(0.0580337 0.0322855 0)
(0.0629178 0.0183319 0)
(0.0808265 0.0446813 0)
(0.0765126 0.00673963 0)
(0.124258 0.00916267 0)
(0.146799 -0.0317387 0)
(0.143664 -0.12439 0)
(0.156746 -0.128362 0)
(0.0819961 -0.0909242 0)
(0.0946979 -0.128932 0)
(0.140166 -0.184106 0)
(0.245054 -0.125733 0)
(0.206752 -0.0456456 0)
(0.000788578 0.0349172 0)
(0.0116153 -0.00764142 0)
(0.0113833 -0.0171532 0)
(0.0216185 -0.0165144 0)
(0.0214515 -0.023674 0)
(0.030595 -0.0166888 0)
(0.0305296 -0.00963572 0)
(0.0391364 -0.0119163 0)
(0.0420464 -0.00193799 0)
(0.0499743 -0.00618581 0)
(0.0574848 0.0123625 0)
(0.0711888 -0.0037848 0)
(0.0769659 0.0286537 0)
(0.0853881 -0.0128945 0)
(0.109855 0.0144152 0)
(0.0903508 -0.0952926 0)
(0.164001 -0.0683669 0)
(0.183926 -0.162347 0)
(0.0489087 -0.0411601 0)
(0.114074 -0.172989 0)
(0.196049 -0.0893314 0)
(0.266247 -0.182913 0)
(0.221424 -0.0281103 0)
(0.00132872 0.0107646 0)
(0.015019 -0.0303278 0)
(0.015978 -0.0331683 0)
(0.0272441 -0.0327983 0)
(0.028024 -0.0273908 0)
(0.0368071 -0.0272164 0)
(0.0401759 -0.0181413 0)
(0.0501545 -0.0192993 0)
(0.0520809 -0.00948214 0)
(0.0629689 -0.011143 0)
(0.0626028 0.0050369 0)
(0.0805308 -0.0105572 0)
(0.073992 0.0152981 0)
(0.100093 -0.0228033 0)
(0.0891433 -0.00676036 0)
(0.162368 -0.072136 0)
(0.163767 -0.0466338 0)
(0.170008 -0.147555 0)
(0.108204 -0.147125 0)
(0.162095 -0.121672 0)
(0.159601 -0.0784901 0)
(0.209637 -0.118305 0)
(0.352317 -0.0622368 0)
(0.00214754 0.00164458 0)
(0.0132628 -0.037478 0)
(0.013806 -0.0415355 0)
(0.0236643 -0.0410781 0)
(0.0247285 -0.0422221 0)
(0.0352263 -0.0415613 0)
(0.035809 -0.0359755 0)
(0.0471972 -0.0352697 0)
(0.046664 -0.0281608 0)
(0.0606217 -0.0238967 0)
(0.0544191 -0.0168101 0)
(0.0759328 -0.0234969 0)
(0.0546921 -0.00502228 0)
(0.0923764 -0.0296625 0)
(0.139524 -0.0343699 0)
(0.157035 -0.0231112 0)
(0.136484 -0.131933 0)
(0.102571 -0.183365 0)
(0.131496 -0.160677 0)
(0.220933 -0.111359 0)
(0.208711 -0.141973 0)
(0.24872 -0.142747 0)
(0.291672 -0.111655 0)
(0.00181808 -0.0191419 0)
(0.015262 -0.0529866 0)
(0.0145263 -0.0538614 0)
(0.0260868 -0.0538946 0)
(0.0262452 -0.0504068 0)
(0.0373993 -0.0486615 0)
(0.0375251 -0.0417724 0)
(0.0494086 -0.0406112 0)
(0.0483714 -0.0358915 0)
(0.0632725 -0.0262382 0)
(0.0582849 -0.023603 0)
(0.0804509 -0.0142635 0)
(0.0605436 -0.0108234 0)
(0.110607 0.00113061 0)
(0.180717 -0.0405426 0)
(0.165817 -0.081862 0)
(0.107373 -0.15347 0)
(0.171859 -0.130245 0)
(0.250139 -0.0796645 0)
(0.205069 -0.172898 0)
(0.13914 -0.101825 0)
(0.227919 -0.190641 0)
(0.36214 -0.0981731 0)
(0.00181757 -0.0331487 0)
(0.0124123 -0.0634216 0)
(0.0124747 -0.0640596 0)
(0.0227293 -0.06516 0)
(0.0232878 -0.0651889 0)
(0.0342186 -0.0651507 0)
(0.0357421 -0.0595474 0)
(0.0479337 -0.0582751 0)
(0.0482032 -0.0543487 0)
(0.0617209 -0.0459892 0)
(0.0645033 -0.0470364 0)
(0.0810456 -0.0342995 0)
(0.0836241 -0.0509532 0)
(0.112348 -0.0139043 0)
(0.12268 -0.0528124 0)
(0.116259 -0.114875 0)
(0.149165 -0.0982299 0)
(0.205378 -0.114972 0)
(0.157481 -0.138401 0)
(0.247106 -0.220286 0)
(0.18094 -0.146325 0)
(0.219363 -0.0716849 0)
(0.294579 -0.158448 0)
(0.00127908 -0.0466467 0)
(0.0129122 -0.0730873 0)
(0.0114435 -0.073395 0)
(0.0230132 -0.0745541 0)
(0.0220097 -0.0721573 0)
(0.0332065 -0.0731905 0)
(0.0330376 -0.0676088 0)
(0.0446179 -0.0658859 0)
(0.0451638 -0.0614292 0)
(0.0529208 -0.060265 0)
(0.0609064 -0.0581217 0)
(0.0572699 -0.0553254 0)
(0.0870359 -0.0648583 0)
(0.139799 -0.0439828 0)
(0.129643 -0.0435538 0)
(0.189915 -0.111467 0)
(0.136844 -0.114392 0)
(0.160372 -0.168771 0)
(0.130827 -0.186906 0)
(0.230061 -0.245701 0)
(0.251197 -0.234146 0)
(0.145225 -0.0921157 0)
(0.247562 -0.170703 0)
(0.00105239 -0.0632045 0)
(0.0109999 -0.0849095 0)
(0.00919405 -0.0858015 0)
(0.0197979 -0.0874722 0)
(0.0179595 -0.0864343 0)
(0.0293606 -0.0887287 0)
(0.0284885 -0.0824642 0)
(0.042274 -0.0847967 0)
(0.0427352 -0.0696087 0)
(0.0548368 -0.0798537 0)
(0.0573181 -0.0528828 0)
(0.0643672 -0.086089 0)
(0.0827291 0.00449168 0)
(0.165454 -0.0297623 0)
(0.107886 -0.0837793 0)
(0.118813 -0.112551 0)
(0.113125 -0.188749 0)
(0.151204 -0.13013 0)
(0.162577 -0.194285 0)
(0.212265 -0.0643369 0)
(0.259045 -0.219917 0)
(0.235101 -0.140831 0)
(0.310822 -0.189652 0)
(-0.000178449 -0.068659 0)
(0.0121743 -0.0870736 0)
(0.0089385 -0.0889023 0)
(0.0215909 -0.0900441 0)
(0.0175389 -0.0892058 0)
(0.0315565 -0.0928306 0)
(0.026176 -0.0914914 0)
(0.0446476 -0.0931775 0)
(0.0362545 -0.0849852 0)
(0.0647503 -0.0876496 0)
(0.0475091 -0.0779201 0)
(0.0894509 -0.101244 0)
(0.158635 -0.0274784 0)
(0.113621 -0.0638463 0)
(0.110638 -0.11421 0)
(0.115299 -0.146263 0)
(0.140887 -0.127205 0)
(0.183212 -0.111247 0)
(0.226419 -0.170294 0)
(0.201454 -0.12149 0)
(0.172632 -0.246159 0)
(0.188535 -0.155987 0)
(0.264208 -0.288337 0)
(-0.000494669 -0.0900524 0)
(0.0106329 -0.1058 0)
(0.00726226 -0.107106 0)
(0.018859 -0.107547 0)
(0.0141814 -0.107874 0)
(0.0282813 -0.10934 0)
(0.0206562 -0.108378 0)
(0.0385027 -0.109734 0)
(0.0290576 -0.10565 0)
(0.0524769 -0.111965 0)
(0.0348153 -0.0887155 0)
(0.069479 -0.0761343 0)
(0.118445 -0.00049728 0)
(0.114781 -0.113419 0)
(0.084892 -0.0881993 0)
(0.117528 -0.11986 0)
(0.145303 -0.106618 0)
(0.152452 -0.149188 0)
(0.151197 -0.210941 0)
(0.0610452 -0.30139 0)
(0.22096 -0.266703 0)
(0.177518 -0.260509 0)
(0.223464 -0.322118 0)
(-0.000138454 -0.0844518 0)
(0.0104451 -0.0981568 0)
(0.00692622 -0.10067 0)
(0.0187614 -0.100075 0)
(0.0132849 -0.103144 0)
(0.0290161 -0.103107 0)
(0.0184097 -0.106838 0)
(0.0425947 -0.108873 0)
(0.0203659 -0.108606 0)
(0.0643441 -0.0978149 0)
(0.0802263 -0.104085 0)
(0.133354 -0.0934862 0)
(0.126453 -0.0798804 0)
(0.106331 -0.151836 0)
(0.117005 -0.112093 0)
(0.084788 -0.105807 0)
(0.105825 -0.134232 0)
(0.112706 -0.136552 0)
(0.11279 -0.218222 0)
(0.123624 -0.259295 0)
(0.260465 -0.186847 0)
(0.140336 -0.297828 0)
(0.19245 -0.231012 0)
(-0.0001779 -0.116322 0)
(0.00807597 -0.125798 0)
(0.00441173 -0.12885 0)
(0.0139059 -0.126545 0)