/*--------------------------------*- C++ -*----------------------------------*\
| =========                 |                                                 |
| \\      /  F ield         | foam-extend: Open Source CFD                    |
|  \\    /   O peration     | Version:     4.1                                |
|   \\  /    A nd           | Web:         http://www.foam-extend.org         |
|    \\/     M anipulation  |                                                 |
\*---------------------------------------------------------------------------*/
FoamFile
{
    version     2.0;
    format      ascii;
    class       volScalarField;
    location    "0.4";
    object      p;
}
// * * * * * * * * * * * * * * * * * * * * * * * * * * * * * * * * * * * * * //

dimensions      [1 -1 -2 0 0 0 0];

internalField   nonuniform List<scalar> 
2268
(
753.224
752.832
752.171
744.433
744.702
732.524
734.977
729.292
722
747.685
722.746
826.06
770.536
799.587
815.168
836.738
858.653
881.764
905.181
929.55
965.655
993.546
1014.98
694.15
693.715
692.905
685.328
685.556
673.435
675.358
669.959
662.875
695.41
648.211
755.633
712.832
738.68
753.843
778.794
798.573
825.396
846.629
866.011
906.544
932.428
955.744
634.841
634.34
633.403
626.157
625.91
613.555
616.211
609.89
600.616
619.596
627.505
673.784
648.874
677.319
694.878
717.801
736.968
759.962
785.855
807.601
842.237
867.751
888.348
575.381
574.721
573.376
566.675
566.016
554.43
554.865
547.685
541.085
586.577
553.035
599.203
590.197
614.9
634.629
652.732
680.389
699.952
725.898
744.618
779.42
804.016
818.889
515.663
514.911
513.323
507.146
505.342
493.086
496.062
491.872
472.195
514.024
500.876
533.982
527.837
551.643
570.783
594.127
618.545
638.478
667.694
685.711
714.71
736.017
747.116
455.914
454.884
452.394
446.887
444.47
434.116
428.667
421.971
435.835
444.229
436.953
461.687
465.992
488.806
512.879
534.005
558.509
578.913
607.08
626.02
655.261
672.936
667.134
395.767
394.68
391.855
387.325
383.956
369.013
381.174
352.916
374.863
375.116
376.753
395.322
403.449
424.901
448.896
469.059
500.864
512.076
558.004
564.048
600.029
604.115
584.159
335.746
334.288
330.456
323.766
320.76
316.273
303.179
305.032
306.443
306.522
310.078
322.962
336.66
361.868
392.415
414.844
434.972
458.853
488.177
505.679
540.965
521.89
515.134
274.75
261.767
255.871
257.004
252.227
241.24
237.942
238.802
238.505
239.357
245.801
242.349
240.994
240.175
237.903
238.603
240.388
243.069
246.943
246.811
243.779
241.323
240.926
241.039
240.527
235.836
237.124
235.431
232.936
238.607
241.558
240.329
239.955
237.36
238.173
240.108
242.457
245.851
241.495
241.588
240.493
240.168
240.006
237.909
237.107
236.859
234.979
234.325
236.834
240.216
239.39
239.127
237.302
238.405
239.515
241.433
244.281
241.269
241.426
240.545
239.968
239.436
237.622
236.858
236.435
234.555
234.39
236.388
237.862
237.865
237.754
237.616
238.337
239.348
240.504
242.801
241.167
240.734
240.373
239.953
239.31
237.973
236.591
236.688
234.472
234.645
236.453
236.381
236.17
236.542
237.556
238.093
238.99
239.683
241.314
240.881
240.729
240.336
239.921
239.321
238.262
236.936
237.01
235.221
234.924
235.414
235.967
234.53
235.423
237.503
238.015
238.689
239.091
240.014
240.836
240.699
240.279
239.992
239.4
238.484
237.307
237.328
235.936
235.594
234.389
234.265
233.162
234.617
236.862
237.911
238.452
239.134
240.873
240.681
240.73
240.286
240.077
239.527
238.666
237.527
237.517
236.618
235.653
234
233.637
232.428
233.737
236.534
237.645
238.379
239.183
243.727
240.952
239.527
233.59
238.64
229.535
195.658
226.515
199.081
207.551
204.128
211.713
219.255
236.095
257.473
284.134
300.088
361.685
362.91
413.845
397.639
475.738
369.849
404.899
117.262
115.456
110.457
95.0296
106.972
89.53
90.4709
79.2823
69.0914
66.4615
66.9116
73.655
86.2318
112.973
138.916
189.109
207
229.64
301.27
251.193
303.542
264.323
307.158
29.3917
27.7078
26.6606
21.5081
22.8351
18.4355
16.1818
11.8071
8.83057
7.43371
7.2243
8.15063
11.2817
21.4272
42.2405
73.5194
101.42
117.448
157.518
152.439
224.421
192.247
280.745
1.63495
1.70716
1.64064
1.36933
1.38667
1.15177
1.03457
0.939225
0.922629
0.878803
0.877474
0.98475
1.22305
2.21973
5.87355
12.9153
19.9813
28.181
44.7695
70.5454
107.595
126.268
132.016
0.488574
0.496752
0.503232
0.515043
0.530036
0.540179
0.57319
0.597673
0.631677
0.633406
0.622475
0.668961
0.735826
0.787747
0.978033
1.33664
1.74991
2.25089
3.73951
15.2583
26.5598
69.2881
85.7044
0.316517
0.327417
0.340997
0.360441
0.362098
0.374817
0.393156
0.418375
0.464107
0.474204
0.507572
0.538694
0.561004
0.55991
0.568207
0.588665
0.641491
0.747038
0.668126
1.00317
2.34295
10.2407
9.40436
0.192397
0.192748
0.20675
0.215421
0.235977
0.246542
0.269254
0.289303
0.314123
0.326573
0.356436
0.37787
0.408093
0.397151
0.405072
0.396635
0.433123
0.479023
0.41914
0.570017
0.351486
0.993764
2.53116
0.0482306
0.0505956
0.0617988
0.0685398
0.0869496
0.0944438
0.108184
0.127936
0.141988
0.1711
0.177072
0.213937
0.226109
0.248326
0.251207
0.272272
0.280404
0.307948
0.340162
0.329008
0.400298
0.453547
0.550112
-0.0878976
-0.0893573
-0.075123
-0.0756431
-0.0554047
-0.0493168
-0.0316837
-0.0169362
0.00270737
0.00738494
0.0377651
0.0495957
0.0703832
0.0770915
0.104878
0.10902
0.144255
0.163287
0.195659
0.204627
0.248376
0.0618323
0.338284
-0.233452
-0.2334
-0.221801
-0.224412
-0.211328
-0.20162
-0.190625
-0.174991
-0.162317
-0.141661
-0.132686
-0.114385
-0.0984718
-0.0881071
-0.0827375
-0.0438164
-0.0367594
0.0333167
0.0560675
0.138294
0.170425
0.30176
0.39839
-0.382165
-0.38934
-0.365368
-0.375753
-0.366661
-0.360877
-0.345735
-0.312446
-0.316082
-0.283528
-0.285054
-0.25024
-0.260552
-0.225295
-0.194371
-0.200316
-0.166882
-0.172194
-0.0734284
-0.0893365
0.0241422
-0.0308049
0.130333
-0.535534
-0.53269
-0.522011
-0.521153
-0.536398
-0.507363
-0.499425
-0.484986
-0.462615
-0.453895
-0.415395
-0.446793
-0.374119
-0.454867
-0.363445
-0.389729
-0.328108
-0.254561
-0.230395
-0.145375
-0.238418
-0.0439484
0.0481509
-0.686867
-0.685189
-0.687848
-0.689853
-0.69013
-0.666288
-0.65627
-0.644699
-0.642686
-0.631699
-0.629434
-0.578916
-0.575022
-0.570675
-0.570348
-0.463067
-0.546238
-0.553681
-0.391149
-0.478026
-0.181415
-0.206251
-0.0581856
-0.840979
-0.835056
-0.847435
-0.827151
-0.854513
-0.811586
-0.837606
-0.813157
-0.835685
-0.781659
-0.773979
-0.736478
-0.718554
-0.732466
-0.709987
-0.730252
-0.585315
-0.648514
-0.499834
-0.689966
-0.728544
-0.301165
-0.321835
-1.00779
-1.00276
-1.01017
-0.996871
-1.00614
-0.973688
-0.989162
-0.953662
-0.991381
-0.952826
-1.11394
-0.936143
-0.914615
-0.831244
-0.993464
-0.897659
-0.989018
-0.764394
-0.911661
-0.677347
-0.848283
-0.609247
-0.56621
-1.13883
-1.13531
-1.14707
-1.15256
-1.15781
-1.12952
-1.13749
-1.13904
-1.12595
-1.07397
-1.06761
-1.16008
-1.08005
-1.13641
-1.10359
-0.992934
-1.17091
-1.06395
-1.00544
-1.01346
-1.07925
-0.899108
-0.781779
-1.35756
-1.3498
-1.34548
-1.35213
-1.31864
-1.33904
-1.32023
-1.31071
-1.30397
-1.3264
-1.2977
-1.30122
-1.26299
-1.26903
-1.19562
-1.32936
-1.22574
-1.32811
-1.29665
-1.26739
-1.31928
-1.22435
-1.15228
-1.37604
-1.35453
-1.44951
-1.35899
-1.4631
-1.35128
-1.4226
-1.45572
-1.48251
-1.51377
-1.41928
-1.47567
-1.44909
-1.47328
-1.40169
-1.44736
-1.28216
-1.50638
-1.29667
-1.6735
-1.65883
-1.40592
-1.50552
-1.72898
-1.7705
-1.53909
-1.76211
-1.67126
-1.75696
-1.68859
-1.59292
-1.63609
-1.6886
-1.7211
-1.68662
-1.72179
-1.57618
-1.66302
-1.51676
-1.70254
-1.63813
-1.7252
-1.67873
-2.07097
-2.16882
-1.65905
-1.91797
-1.9508
-2.04961
-1.94311
-1.92761
-1.92573
-1.89492
-1.9602
-1.85197
-1.85305
-1.82246
-1.78588
-1.81299
-1.84638
-2.07246
-1.94021
-1.84775
-1.90091
-1.75682
-2.08411
-2.16685
-2.24152
-2.18783
-2.11902
-2.11974
-2.12445
-2.11314
-2.08505
-2.0935
-2.08743
-2.17964
-2.05539
-2.03062
-2.05795
-2.10218
-2.13745
-2.06268
-2.0249
-2.11397
-2.15569
-2.2117
-2.05209
-2.30756
-2.47763
-2.62249
-2.52199
-2.28342
-2.31012
-2.32849
-2.31443
-2.41776
-2.30773
-2.40536
-2.25822
-2.26713
-2.39299
-2.23996
-2.28783
-2.30993
-2.34651
-2.33318
-2.38553
-2.24176
-2.31378
-2.44631
-2.14346
-2.77873
-3.02232
-3.69869
-2.55425
-2.52068
-2.45312
-2.59222
-2.36368
-2.55429
-2.35391
-2.39423
-2.4809
-2.44731
-2.51846
-2.45596
-2.53096
-2.64281
-2.59693
-2.75181
-2.55194
-2.88401
-2.99721
-3.06943
-3.10111
-3.32925
-3.78354
-2.57327
-2.69961
-2.70471
-2.50367
-2.54504
-2.48979
-2.50634
-2.50151
-2.45684
-2.55468
-2.61456
-2.62157
-2.6723
-2.69202
-2.58285
-2.73067
-2.92695
-2.88727
-2.92722
-3.27744
-3.31233
-3.26354
-4.10054
-2.69986
-2.62334
-2.60219
-2.7459
-2.7374
-2.72486
-2.70044
-2.83909
-2.91706
-2.84994
-2.88994
-2.89657
-2.97095
-3.05093
-3.12681
-2.96586
-3.18153
-3.11622
-3.064
-3.4522
-3.64407
-4.68216
-5.70848
-2.90255
-2.90851
-2.87291
-2.8101
-2.73388
-2.76587
-3.02722
-2.96119
-3.00671
-2.98621
-3.03276
-3.00126
-3.07894
-2.90533
-3.19635
-3.09555
-3.66601
-3.41664
-3.55212
-4.22212
-4.6822
-5.27974
-6.07158
-3.02686
-2.93831
-2.95937
-3.18815
-3.2395
-3.29605
-3.25458
-3.23541
-3.23253
-3.23461
-3.2459
-3.24832
-3.27584
-3.27081
-3.34511
-3.44673
-3.54718
-3.7618
-3.86148
-4.14157
-4.13067
-4.88913
-6.0237
-3.42154
-3.51492
-3.49923
-3.41874
-3.38019
-3.38264
-3.38424
-3.39049
-3.39062
-3.40366
-3.40324
-3.41663
-3.43527
-3.4606
-3.49644
-3.69207
-3.81958
-3.80799
-4.14422
-4.45908
-4.79738
-6.15148
-6.51092
-3.52369
-3.53613
-3.53848
-3.56899
-3.58408
-3.58805
-3.58914
-3.59514
-3.59229
-3.60891
-3.59942
-3.62941
-3.64158
-3.66871
-3.64847
-4.02143
-3.5877
-4.6524
-3.52353
-4.36765
-4.9584
-5.44425
-6.15722
-3.76725
-3.77623
-3.77329
-3.76761
-3.75619
-3.7615
-3.75703
-3.76571
-3.75914
-3.77753
-3.76782
-3.77481
-3.76522
-3.64125
-3.82313
-4.12072
-4.00225
-4.75799
-3.73436
-5.01633
-4.59342
-5.06397
-6.097
-3.92535
-3.9286
-3.92858
-3.94231
-3.93689
-3.94462
-3.94449
-3.95421
-3.95635
-3.98019
-3.97217
-4.04308
-4.03531
-4.30324
-4.1407
-4.16841
-4.20631
-4.07988
-4.71132
-4.7973
-5.11681
-4.77731
-5.52985
-4.11961
-4.12296
-4.12019
-4.11728
-4.11928
-4.12253
-4.123
-4.12968
-4.13427
-4.14283
-4.15622
-4.16119
-4.19779
-4.20307
-4.24326
-4.3021
-4.28724
-4.45148
-4.81128
-5.02146
-4.96046
-5.18217
-5.47112
-4.29117
-4.29754
-4.29183
-4.29285
-4.29262
-4.29808
-4.29925
-4.30654
-4.30932
-4.3252
-4.33169
-4.35162
-4.35888
-4.40257
-4.40557
-4.43272
-4.53773
-4.59116
-4.58438
-4.33045
-4.49695
-4.96152
-5.34607
-4.4623
-4.46919
-4.46587
-4.46629
-4.46641
-4.47016
-4.474
-4.47778
-4.48208
-4.48431
-4.49676
-4.50412
-4.51788
-4.53567
-4.54825
-4.54043
-4.68414
-4.58256
-4.50257
-4.75975
-5.01805
-4.97673
-5.20992
-4.63064
-4.62977
-4.63751
-4.64083
-4.6418
-4.64532
-4.64632
-4.64989
-4.65065
-4.65524
-4.65622
-4.66195
-4.66319
-4.67397
-4.67392
-4.67821
-4.71676
-4.68882
-4.6338
-4.62302
-4.90666
-4.7688
-5.21331
-4.81199
-4.80575
-4.8129
-4.81643
-4.81774
-4.81952
-4.81916
-4.82016
-4.81886
-4.81925
-4.81756
-4.82101
-4.81479
-4.81642
-4.81133
-4.79299
-4.81105
-4.81272
-4.71553
-5.00451
-4.84848
-4.60673
-4.4801
-4.98835
-4.98555
-4.98694
-4.98912
-4.98958
-4.99069
-4.98902
-4.98972
-4.98462
-4.98553
-4.97688
-4.97193
-4.95111
-4.96603
-4.94368
-4.93519
-4.92971
-4.91372
-4.91785
-4.94963
-4.93116
-4.90821
-4.85635
-5.15522
-5.15546
-5.15595
-5.15643
-5.15594
-5.15516
-5.15276
-5.15085
-5.14484
-5.14611
-5.13811
-5.12461
-5.13732
-5.09893
-5.0963
-5.05887
-5.05103
-5.03347
-5.01734
-5.14325
-4.79045
-4.95777
-4.61641
-5.34577
-5.34569
-5.34615
-5.34627
-5.3457
-5.34433
-5.34175
-5.33922
-5.33398
-5.3341
-5.33249
-5.31118
-5.29181
-5.24422
-5.22597
-5.18877
-5.19447
-5.15694
-5.13322
-5.14478
-5.0753
-5.09382
-4.86077
-5.4847
-5.485
-5.48498
-5.48474
-5.48431
-5.48206
-5.4823
-5.47438
-5.47237
-5.46918
-5.46221
-5.4547
-5.44303
-5.42236
-5.40264
-5.37084
-5.34995
-5.33236
-5.31478
-5.28766
-5.23097
-5.19998
-5.37791
-5.77427
-5.77487
-5.77472
-5.77456
-5.77397
-5.77264
-5.77195
-5.76804
-5.76392
-5.75868
-5.74701
-5.73017
-5.69193
-5.61979
-5.50363
-5.45196
-5.39908
-5.41115
-5.40935
-5.36616
-5.47728
-5.27648
-5.44732
-5.64068
-5.64086
-5.64095
-5.64087
-5.64096
-5.64083
-5.641
-5.64093
-5.64217
-5.64553
-5.65035
-5.66655
-5.68713
-5.75503
-5.81914
-5.80798
-5.76377
-5.74063
-5.68905
-5.67207
-5.61687
-5.59296
-5.53513
285.765
167.831
230.126
249.168
222.612
255.36
297.899
249.556
238.387
222.766
199.419
235.683
194.984
173.169
176.555
201.062
102.549
97.3582
100.959
96.3941
45.733
43.3055
55.3471
59.9682
5.53004
6.78923
12.8418
14.1937
0.622322
0.706812
1.27116
1.43088
0.567438
0.592406
0.637888
0.709726
0.499967
0.513095
0.568045
0.617594
0.383886
0.417151
0.482564
0.570115
0.167006
0.231441
0.326997
0.395854
-0.0895396
0.0678294
0.149384
0.257591
-0.196251
-0.106233
-0.00102828
0.0738328
-0.359534
-0.24175
-0.142504
-0.0695198
-0.621399
-0.692758
-0.299804
-0.263457
-0.64335
-0.648326
-0.594281
-0.596924
-0.971394
-0.960464
-0.930241
-0.839894
-1.29096
-1.29552
-1.30132
-1.21827
-1.86865
-1.72531
-1.77689
-1.86732
-2.84779
-2.52085
-2.65728
-2.68371
-3.23642
-3.34926
-3.48314
-3.43459
-3.67974
-3.68382
-3.97791
-4.54446
-4.80257
-4.54522
-4.91793
-5.3109
-5.96208
-6.4782
-6.87618
-7.56874
-6.65677
-7.5046
-8.1591
-8.17908
-7.22195
-7.80416
-8.15765
-8.39404
-7.38096
-7.84329
-8.14538
-8.50669
-6.96188
-7.25623
-7.5241
-7.94325
-6.49437
-6.89345
-7.18205
-7.36351
-5.91616
-6.35366
-6.7068
-6.95579
-5.67688
-5.87686
-6.15958
-6.47903
-5.49702
-5.58749
-5.76664
-5.97641
-5.4461
-5.47779
-5.51965
-5.55773
-5.35347
-5.53847
-5.51771
-5.53814
-5.75418
-5.7089
-5.63382
-5.70495
-5.02928
-5.08341
-5.23085
-5.2719
-5.59741
-5.48441
-5.31421
-5.16234
-5.30599
-5.19484
-5.19272
-5.1338
-5.09903
-5.17292
-5.17654
-5.12342
-5.34732
-5.31749
-5.24117
-5.40725
-5.63684
-5.6751
-5.71619
-5.63748
227.702
239.715
240.385
240.134
239.792
239.249
237.445
237.69
236.368
235.957
234.185
232.942
232.049
233.376
233.382
230.978
232.42
237.896
258.018
267.176
239.596
240.126
240.205
240.123
239.702
238.62
237.88
236.226
235.546
234.621
232.229
229.912
235.061
238.081
246.454
248.838
294.314
379.758
223.484
259.866
209.849
238.787
239.712
239.35
238.791
237.332
236.86
234.561
235.432
224.453
183.931
253.353
334.115
477.732
645.652
309.773
759.62
160.501
155.305
162.394
194.878
220.835
236.047
237.824
237.327
235.908
234.465
232.758
231.418
256.899
302.594
109.945
667.402
1005.23
521.222
1073.07
108.429
162.282
119.653
53.8486
234.709
183.452
217.919
234.375
235.499
235.668
228.453
249.142
206.075
219.363
227.886
566.803
713.881
659.741
1123.24
121.047
-21.8274
80.4487
132.97
108.182
-26.8615
218.925
168.754
218.815
226.904
154.832
111.746
180.451
173.482
308.483
559.779
582.088
723.391
1087
35.2779
12.715
19.9994
27.4132
6.72471
39.5094
76.2812
0.767971
67.9617
247.557
-95.2676
118.025
375.246
-14.0172
258.444
389.655
531.541
525.522
1040.02
4.44275
1.81715
2.59541
3.35594
6.10225
7.13013
11.9267
20.666
46.1022
22.206
-2.10758
82.9762
132.058
44.1719
199.496
274.451
393.718
456.002
760.626
0.842463
1.24413
1.53333
1.66903
1.93016
2.40427
2.63135
3.31535
4.69582
5.11781
8.95954
16.3737
34.8584
41.9302
86.0458
238.571
404.893
359.29
467.032
0.776282
0.932302
1.29521
1.55995
1.75638
2.14788
2.33952
2.65139
3.10807
3.53199
5.1256
10.0654
17.4927
25.2541
38.3083
-26.6145
39.2792
254.873
312.92
0.676788
1.04249
1.16991
1.44893
1.6865
2.05596
2.36529
2.69485
2.89457
3.37109
3.76298
4.51132
6.51211
11.3008
34.7088
99.3617
8.22472
42.0549
189.879
0.568557
0.729577
1.23145
1.36567
1.71584
2.06543
2.28463
2.64201
2.76358
3.43455
3.53563
3.84351
4.48112
5.9408
8.01371
32.127
-1.96243
20.5681
127.262
0.387741
0.909753
1.01546
1.21885
1.53453
1.93019
2.32186
2.52946
2.88445
3.1789
3.23552
2.96371
3.15388
4.9774
4.60695
53.9246
35.5836
27.9777
142.271
0.269799
0.51618
0.831433
1.14891
1.56911
1.88057
2.22278
2.39816
2.757
3.00973
2.96612
3.0888
3.13862
4.26931
3.22611
13.8057
-0.0990476
19.6408
140.319
0.019319
0.163442
0.398787
0.434367
1.31779
1.82303
2.24935
2.23752
2.68388
2.59683
3.04382
3.27945
3.39831
4.08829
3.43944
8.16304
15.0838
-63.4505
34.6323
-0.0439326
-0.237263
0.318364
0.503069
1.48446
1.8445
1.91929
2.03881
2.6337
2.55191
3.12285
3.18264
3.27551
3.65864
3.37531
4.48465
2.93056
-40.3295
9.90436
-0.322931
-0.727993
-0.458973
-0.402134
1.2326
1.76215
1.85475
2.12009
2.60939
2.55194
3.05891
3.10801
3.19911
3.39878
3.36159
3.75349
-7.8454
-14.5618
-1.02822
-0.840147
-0.632519
-0.719222
-0.698578
0.423553
1.76224
1.58611
2.05544
2.73475
2.83578
2.75713
3.1357
3.10281
3.26834
3.50193
3.9086
1.03565
2.26971
9.27333
-1.02935
-0.894261
-0.724582
-1.57937
-0.00929866
0.729455
1.78818
2.0006
1.95212
2.72317
3.00969
3.05738
3.06432
3.08437
2.99232
2.36446
4.22329
5.61207
7.36488
-1.76195
-1.22556
-2.44073
-1.94036
-0.524381
0.506541
1.14013
1.62905
1.98428
2.54927
2.85654
3.04238
2.6027
2.85172
3.34846
-1.57267
10.2533
5.10558
10.1878
-2.67101
-2.42
-2.58628
-2.24232
-0.833136
0.157927
1.2664
1.9754
1.94145
2.95145
2.44299
2.90299
1.31583
-2.90419
7.90902
-1.97746
-0.395927
8.45512
7.42408
-3.44368
-3.79505
-5.6729
-4.74954
-2.85671
-0.259179
0.54673
2.01362
2.29096
2.87151
3.44394
1.83449
-7.14902
2.33936
8.78764
1.40667
2.49799
7.41301
10.6032
-4.98432
-4.29573
-6.65446
-6.6639
-5.09465
-3.18348
-1.41012
0.540311
1.64549
4.21503
-1.42206
2.10814
1.58435
2.36742
7.16715
1.18599
2.64469
2.03604
12.6892
-6.85471
-7.37864
-7.69009
-9.34042
-8.6474
-6.98602
-4.26449
-1.65887
0.88311
3.90104
5.95258
-2.2589
-2.38472
9.70293
8.05931
0.605742
2.92502
1.30459
6.76694
-7.60656
-9.25724
-9.76998
-11.0791
-9.74124
-9.26808
-6.87087
-3.37395
-0.818772
3.09329
-1.39902
0.179055
-2.28676
7.62088
6.65191
7.51717
4.8717
1.14001
3.60766
-8.07077
-10.0969
-12.0955
-13.1855
-12.4277
-11.5336
-8.49941
-4.18861
-1.63518
-2.01508
-3.90032
-2.7276
-5.48243
1.87012
1.16939
5.03666
4.7404
0.145719
-4.63624
-9.23633
-11.0823
-12.7922
-14.3652
-14.0937
-14.415
-11.7612
-6.19276
-2.10084
-3.5423
-6.06692
-3.11344
-4.91925
-5.95596
-1.37941
0.465159
-2.23475
-6.79541
-0.92944
-9.48556
-10.5381
-12.7287
-15.0403
-13.692
-11.46
-13.6445
-10.1273
-6.54785
-7.45848
-7.5045
-6.41155
-6.03448
-5.41733
-6.45052
-2.06489
-5.32821
-11.5666
62.7642
-8.41496
-9.80415
-11.4495
-12.9193
-11.2818
-9.46437
-9.25063
-8.80265
-9.08292
-7.66268
-8.61144
-8.45543
-6.9912
-7.10716
-6.52548
-6.35245
-7.16093
-1.71996
114.684
-7.93319
-9.1436
-8.77402
-9.66309
-8.57904
-7.01632
-6.95112
-7.55931
-8.58905
-8.4669
-7.95015
-8.50991
-8.10131
-7.79215
-7.25807
-8.13213
-6.96072
55.7953
96.3021
-7.4165
-8.41837
-9.11057
-7.16338
-6.47692
-6.43553
-5.0021
-5.26119
-8.41107
-8.05069
-8.496
-9.01113
-7.84664
-8.05168
-7.4645
-7.20668
-6.53698
10.1655
103.476
-6.83755
-7.25795
-8.00572
-6.18772
-5.62674
-4.95792
-4.82564
-4.64661
-4.55656
-6.76067
-8.21923
-8.4627
-7.78666
-7.78332
-7.50296
-6.98351
-4.64641
-0.514964
99.7105
-6.22535
-6.63707
-6.96754
-6.39853
-6.05015
-5.35239
-4.32013
-5.21213
-4.7412
-5.75797
-7.41326
-8.44191
-7.25649
-7.30583
-6.94921
-7.54854
-4.02945
19.3018
127.939
-5.8174
-6.43223
-5.42662
-5.78598
-6.33439
-4.99513
-4.70791
-5.71161
-4.83474
-5.63146
-7.01022
-6.83611
-8.63857
-7.06973
-7.14441
-6.56517
-3.0139
66.417
154.475
-5.38826
-5.62855
-5.43569
-5.08726
-5.72134
-6.1292
-5.73789
-4.54399
-2.97519
-4.42735
-6.21125
-7.12843
-5.64637
-8.90806
-10.6282
2.65929
-41.2126
61.6108
104.542
-5.31283
-5.05845
-5.13234
-4.24826
-5.22063
-6.39519
-5.9609
-6.02121
-4.99721
-4.97173
-5.05342
-5.15991
-5.80363
-6.38047
-7.72732
2.36702
5.25408
24.3793
24.522
-6.07076
-5.77872
-5.33374
-5.39223
-4.94612
-5.15579
-5.38211
-5.17749
-5.16804
-4.82743
-5.08274
-5.63886
-5.37276
-5.73576
-4.19923
-2.59226
-1.14682
3.08775
25.3475
-4.9944
-6.32334
-4.99018
-4.83392
-5.49333
-5.24223
-5.2611
-5.22865
-5.08786
-5.11965
-5.40812
-5.0416
-5.32868
-5.24387
-5.04855
-4.38752
-4.19392
-3.25622
0.39533
-5.09613
-5.16571
-6.07048
-6.05191
-5.6592
-5.43796
-5.4242
-5.3663
-5.11895
-5.31368
-5.41509
-5.50325
-5.33704
-5.20334
-5.40191
-5.23925
-5.31271
-4.91016
-2.89252
-5.52642
-5.36525
-5.62363
-5.60715
-5.51911
-5.56338
-5.46626
-5.35664
-5.36618
-5.36143
-5.49618
-5.43309
-5.41602
-5.36649
-5.33064
-5.35769
-4.76895
-5.18152
1.28327
-5.40791
-5.39993
-5.60599
-5.58278
-5.61481
-5.58051
-5.51827
-5.52623
-5.47036
-5.52724
-5.59851
-5.6169
-5.61409
-5.45507
-5.69072
-5.12837
-4.95027
-6.07922
244.884
-5.76747
-5.78633
-6.04016
-5.91852
-5.84874
-5.81913
-5.75588
-5.71753
-5.69326
-5.6743
-5.69929
-5.70814
-5.77544
-6.08394
-5.9594
-7.65559
-5.74962
-34.1067
-323.769
)
;

boundaryField
{
    leftWall
    {
        type            calculated;
        value           nonuniform List<scalar> 
50
(
753.224
694.15
634.841
575.381
515.663
455.914
395.767
335.746
240.952
117.262
29.3917
1.63495
0.488574
0.316517
0.192397
0.0482306
-0.0878976
-0.233452
-0.382165
-0.535534
-0.686867
-0.840979
-1.00779
-1.13883
-1.35756
-1.37604
-1.72898
-1.91797
-2.11902
-2.28342
-2.55425
-2.57327
-2.69986
-2.90255
-3.02686
-3.42154
-3.52369
-3.76725
-3.92535
-4.11961
-4.29117
-4.4623
-4.63064
-4.81199
-4.98835
-5.15522
-5.34577
-5.4847
-5.77427
-5.64068
)
;
    }
    rightWall
    {
        type            calculated;
        value           nonuniform List<scalar> 
50
(
246.943
245.851
244.281
242.801
241.314
240.014
240.873
243.727
258.018
379.758
759.62
1073.07
1123.24
1087
1040.02
760.626
467.032
312.92
189.879
127.262
142.271
140.319
34.6323
9.90436
-1.02822
9.27333
7.36488
10.1878
7.42408
10.6032
12.6892
6.76694
3.60766
-4.63624
-0.92944
62.7642
114.684
96.3021
103.476
99.7105
127.939
154.475
104.542
24.522
25.3475
0.39533
-2.89252
1.28327
244.884
-323.769
)
;
    }
    lowerWall
    {
        type            calculated;
        value           nonuniform List<scalar> 
62
(
782.653
782.261
781.6
773.862
774.132
761.953
764.406
758.722
751.43
777.115
752.175
855.489
799.965
829.017
844.597
866.167
888.083
911.193
934.61
958.979
995.085
1022.98
1044.41
1014.98
955.744
888.348
818.889
747.116
667.134
584.159
515.134
348.362
230.428
292.719
305.254
274.75
246.811
241.495
241.269
241.167
240.881
240.836
240.681
286.691
273.174
266.527
266.675
257.615
242.344
238.236
239.791
240.542
241.137
246.24
242.378
241.023
240.205
237.932
238.632
240.417
243.099
246.973
)
;
    }
    atmosphere
    {
        type            calculated;
        value           nonuniform List<scalar> 
46
(
-5.87413
-5.87567
-5.87541
-5.87513
-5.87464
-5.87399
-5.87354
-5.87234
-5.87124
-5.87156
-5.86871
-5.87188
-5.86288
-5.87149
-5.85913
-5.83131
-5.79822
-5.78334
-5.75973
-5.74964
-5.74042
-5.72904
-5.72904
-5.72904
-5.72904
-5.72904
-5.72904
-5.73018
-5.74541
-5.75941
-5.73941
-5.72904
-5.72904
-5.72904
-5.72904
-5.72904
-5.72914
-5.7527
-5.77659
-5.80722
-5.94024
-6.02197
-6.33502
-5.73702
-60.8136
-1372.34
)
;
    }
    defaultFaces
    {
        type            empty;
    }
}


// ************************************************************************* //
