/*--------------------------------*- C++ -*----------------------------------*\
| =========                 |                                                 |
| \\      /  F ield         | foam-extend: Open Source CFD                    |
|  \\    /   O peration     | Version:     4.1                                |
|   \\  /    A nd           | Web:         http://www.foam-extend.org         |
|    \\/     M anipulation  |                                                 |
\*---------------------------------------------------------------------------*/
FoamFile
{
    version     2.0;
    format      ascii;
    class       volScalarField;
    location    "0.4";
    object      pd;
}
// * * * * * * * * * * * * * * * * * * * * * * * * * * * * * * * * * * * * * //

dimensions      [1 -1 -2 0 0 0 0];

internalField   nonuniform List<scalar> 
2268
(
782.653
782.261
781.6
773.862
774.132
761.953
764.406
758.722
751.43
777.115
752.175
855.489
799.965
829.017
844.597
866.167
888.083
911.193
934.61
958.979
995.085
1022.98
1044.41
782.438
782.003
781.193
773.616
773.844
761.723
763.646
758.247
751.163
783.699
736.499
843.921
801.12
826.968
842.131
867.082
886.861
913.684
934.917
954.299
994.832
1020.72
1044.03
781.987
781.486
780.55
773.304
773.057
760.702
763.358
757.036
747.762
766.743
774.652
820.931
796.021
824.466
842.025
864.948
884.115
907.108
933.001
954.748
989.384
1014.9
1035.48
781.386
780.727
779.381
772.681
772.021
760.435
760.87
753.691
747.09
792.582
759.04
805.209
796.203
820.906
840.635
858.738
886.394
905.957
931.904
950.623
985.425
1010.02
1024.85
780.528
779.775
778.187
772.01
770.207
757.951
760.927
756.736
737.059
778.888
765.741
798.846
792.701
816.507
835.647
858.991
883.41
903.342
932.558
950.576
979.574
1000.88
1011.87
779.637
778.607
776.117
770.61
768.193
757.839
752.39
745.694
759.558
767.952
760.676
785.41
789.715
812.529
836.602
857.728
882.232
902.636
930.803
949.743
978.984
996.659
990.721
778.349
777.262
774.437
769.906
766.538
751.595
763.756
735.498
757.445
757.698
759.335
777.903
786.031
807.483
831.477
851.64
883.446
894.658
940.586
946.629
982.611
986.696
966.641
777.187
775.728
771.896
765.207
762.2
757.714
744.619
746.472
747.884
747.962
751.518
764.402
778.101
803.308
833.855
856.284
876.412
900.294
929.617
947.119
982.405
963.331
956.544
286.691
273.174
266.527
266.675
257.615
242.344
238.236
239.791
240.542
241.137
246.24
242.378
241.023
240.205
237.932
238.632
240.417
243.099
246.973
261.188
249.43
243.069
242.986
244.628
244.01
236.914
238.195
237.471
235.15
239.162
241.647
240.417
240.044
237.448
238.261
240.197
242.545
245.939
242.18
241.901
240.674
240.366
240.618
239.318
238.107
237.591
235.904
235.219
237.055
240.363
239.537
239.274
237.449
238.552
239.662
241.58
244.428
241.617
241.648
240.758
240.192
239.868
237.914
237.154
236.86
234.941
234.696
236.596
238.068
238.071
237.961
237.822
238.543
239.554
240.71
243.007
241.466
241.002
240.644
240.235
239.592
238.241
236.89
237.004
234.754
234.916
236.72
236.648
236.456
236.85
237.825
238.358
239.254
239.948
241.579
241.21
241.054
240.665
240.25
239.645
238.588
237.267
237.338
235.546
235.249
235.745
236.376
235.2
236.249
237.943
238.344
239.013
239.415
240.341
241.221
241.084
240.665
240.377
239.782
238.867
237.69
237.711
236.319
235.978
234.804
234.917
234.279
235.959
238.194
238.436
238.835
239.517
241.99
241.182
241.174
240.73
240.52
239.969
239.107
237.968
237.959
237.059
236.099
234.503
234.357
233.103
235.217
240.856
239.978
239.001
239.624
261.665
773.846
772.193
766.219
770.803
761.681
726.812
757.242
728.567
735.1
730.031
736.695
746.373
766.557
789.915
817.309
833.5
895.141
896.373
947.309
931.105
1009.21
903.316
938.362
729.26
719.945
714.135
677.074
694.396
654.708
646.559
610.384
565.802
539.594
529.396
557.35
619.277
706.19
769.108
837.716
863.004
887.591
959.721
909.812
962.2
922.984
965.818
355.35
334.79
328.455
262.99
278.97
225.303
199.404
145.459
101.919
84.2482
80.7728
91.3248
124.847
226.331
439.583
710.245
845.089
883.179
931.799
931.682
1006.89
975.794
1064.5
18.2494
18.2889
16.8952
12.4409
12.8904
9.58016
7.52479
4.85389
3.50995
3.27949
3.35209
3.77559
6.00835
21.8669
75.8889
176.419
283.114
370.202
599.69
864.835
994.802
1029.74
1038.77
1.83889
1.95301
1.82613
1.76722
1.80556
1.7559
1.74535
1.68757
1.6927
1.69098
1.67519
1.73685
1.99626
3.35693
7.23837
14.4086
18.4518
24.1589
54.6201
260.119
488.313
881.717
1062.61
1.48619
1.5001
1.50462
1.52296
1.52646
1.53963
1.55782
1.58004
1.62459
1.63415
1.66769
1.70362
1.7437
1.77508
1.83085
1.95484
2.02556
2.37102
2.78138
11.404
42.9111
270.231
468.959
1.47729
1.47767
1.49142
1.50008
1.52066
1.53129
1.55409
1.57408
1.59884
1.61126
1.64147
1.66521
1.71251
1.72005
1.74927
1.71651
1.74015
1.80859
1.8195
2.25628
3.84041
21.1835
35.712
1.45806
1.46043
1.47163
1.47837
1.49678
1.50427
1.51802
1.53777
1.55182
1.58096
1.5878
1.6268
1.68392
1.73056
1.71872
1.70575
1.69524
1.72612
1.78348
1.84257
1.96421
2.31435
2.84356
1.44713
1.44567
1.4599
1.45938
1.47962
1.48571
1.50334
1.51809
1.53773
1.54245
1.57399
1.58606
1.61208
1.66199
1.66416
1.6535
1.68058
1.69948
1.73812
1.81666
1.94711
1.76275
1.97882
1.42677
1.42682
1.43842
1.43581
1.44889
1.4586
1.46959
1.48523
1.4979
1.51857
1.52796
1.54623
1.56329
1.57359
1.57822
1.61673
1.62352
1.69411
1.71757
1.79999
1.83519
1.98267
2.08686
1.40325
1.39607
1.42004
1.40966
1.41875
1.42454
1.43968
1.47297
1.46933
1.50189
1.50039
1.5352
1.52489
1.56014
1.59105
1.5851
1.61853
1.61322
1.71199
1.69608
1.80956
1.75493
1.91655
1.37507
1.37792
1.3886
1.38945
1.37421
1.40324
1.41118
1.42562
1.44799
1.45671
1.49522
1.46382
1.53649
1.45574
1.54716
1.52088
1.5825
1.65605
1.68021
1.76523
1.67219
1.86666
1.95876
1.34893
1.35061
1.34795
1.34595
1.34567
1.36951
1.37953
1.3911
1.39312
1.4041
1.40637
1.45689
1.46078
1.46513
1.46545
1.57274
1.48956
1.48212
1.64465
1.55778
1.85439
1.82955
1.97762
1.32002
1.32594
1.31356
1.33385
1.30648
1.34941
1.32339
1.34784
1.32531
1.37934
1.38702
1.42452
1.44244
1.42853
1.45101
1.43074
1.57568
1.51248
1.66116
1.47103
1.43245
1.85983
1.83916
1.2784
1.28343
1.27602
1.28932
1.28005
1.3125
1.29703
1.33253
1.29481
1.33336
1.17225
1.35005
1.37158
1.45495
1.29273
1.38853
1.29717
1.5218
1.37453
1.60884
1.43791
1.67694
1.71998
1.27255
1.27607
1.26431
1.25882
1.25357
1.28186
1.27389
1.27234
1.28543
1.33741
1.34377
1.25131
1.33134
1.27497
1.30779
1.41845
1.24048
1.34744
1.40595
1.39793
1.33214
1.51228
1.62961
1.17902
1.18678
1.1911
1.18445
1.21794
1.19754
1.21635
1.22587
1.23261
1.21018
1.23888
1.23536
1.27359
1.26755
1.34096
1.20722
1.31084
1.20847
1.23993
1.26919
1.2173
1.31223
1.3843
1.28574
1.30725
1.21226
1.30278
1.19867
1.31049
1.23917
1.20606
1.17927
1.148
1.2425
1.18611
1.21268
1.1885
1.26008
1.21441
1.37962
1.15539
1.3651
0.988269
1.00295
1.25586
1.15625
1.05799
1.01647
1.24788
1.02486
1.11571
1.03001
1.09838
1.19405
1.15087
1.09837
1.06587
1.10035
1.06518
1.21079
1.12395
1.27021
1.08443
1.14884
1.06177
1.10824
0.715994
0.61815
1.12792
0.994194
0.961364
0.862553
0.969052
0.984558
0.986431
1.01724
0.951968
1.06019
1.05911
1.0897
1.12628
1.09917
1.06578
0.839701
0.971955
1.06441
1.01126
1.15534
0.828049
0.745313
0.670646
0.724338
0.91834
0.917622
0.912911
0.924222
0.952307
0.943858
0.949928
0.857718
0.981972
1.00674
0.979404
0.935179
0.89991
0.974674
1.01246
0.923391
0.881667
0.825661
0.985268
0.729801
0.559723
0.414867
0.515371
0.879134
0.85243
0.834058
0.848124
0.744796
0.854822
0.757192
0.904328
0.895417
0.769562
0.922597
0.874723
0.852624
0.816046
0.829368
0.777025
0.920791
0.84877
0.716246
1.0191
0.383818
0.14023
-0.536133
0.733494
0.767065
0.834627
0.695525
0.924062
0.733459
0.933839
0.893513
0.806851
0.840441
0.769288
0.831784
0.756789
0.644934
0.690816
0.535937
0.735806
0.403734
0.29054
0.21832
0.186642
-0.0414912
-0.495775
0.839668
0.713327
0.70823
0.909266
0.867906
0.92315
0.906603
0.911436
0.956104
0.858262
0.798379
0.791369
0.740646
0.720922
0.830089
0.682269
0.48599
0.525674
0.485718
0.135497
0.10061
0.15085
-0.684718
0.83828
0.914801
0.935946
0.792239
0.800739
0.813276
0.837691
0.699045
0.621073
0.688192
0.648199
0.641566
0.567186
0.487204
0.411324
0.572273
0.356604
0.421916
0.47414
0.0859383
-0.10593
-1.10843
-2.07518
0.760776
0.75482
0.790424
0.853234
0.929452
0.897462
0.636115
0.702138
0.656617
0.677121
0.630569
0.662071
0.584389
0.758005
0.466983
0.56778
-0.00267827
0.246685
0.111213
-0.558786
-1.01886
-1.36135
-1.41549
0.761662
0.85022
0.829153
0.600371
0.549025
0.492477
0.533947
0.553112
0.555992
0.55392
0.542626
0.540202
0.512688
0.517718
0.443413
0.341792
0.241348
0.0267267
-0.0729532
-0.353048
-0.341783
-0.391272
1.51809
0.492174
0.3988
0.41449
0.49498
0.533526
0.531077
0.52948
0.523228
0.523103
0.510062
0.510481
0.497087
0.478446
0.453116
0.417275
0.221649
0.0941357
0.105733
-0.2305
-0.545362
-0.880601
-1.18934
2.59134
0.51522
0.502787
0.500436
0.469922
0.454832
0.450866
0.449772
0.443777
0.446623
0.430002
0.439496
0.409506
0.39733
0.370203
0.390445
0.017486
0.451218
-0.613485
0.515382
-0.328734
-0.911819
-0.970108
1.5243
0.396862
0.387874
0.390816
0.396497
0.407921
0.402604
0.407074
0.3984
0.404964
0.386579
0.396291
0.389301
0.398893
0.522861
0.340975
0.0433863
0.161854
-0.593881
0.429752
-0.852216
-0.428529
-0.79452
-0.0595855
0.363957
0.360706
0.360726
0.34699
0.352409
0.344687
0.344815
0.335089
0.332952
0.309117
0.317136
0.246228
0.253995
-0.0139402
0.148601
0.120892
0.082992
0.209425
-0.422013
-0.507994
-0.827198
-0.464268
-0.602876
0.294887
0.291541
0.294311
0.297213
0.295216
0.291965
0.291498
0.284815
0.280229
0.27167
0.258282
0.253307
0.216706
0.21143
0.171237
0.112395
0.127257
-0.0369822
-0.396787
-0.606961
-0.545764
-0.753915
-0.758442
0.248525
0.242155
0.247862
0.24684
0.247077
0.241607
0.240443
0.233148
0.230372
0.214495
0.208007
0.188067
0.180812
0.137125
0.134126
0.106974
0.00195718
-0.051471
-0.0446921
0.209242
0.0427898
-0.413092
-0.600524
0.20259
0.195696
0.199015
0.1986
0.198475
0.194723
0.190887
0.187106
0.182807
0.180575
0.16813
0.160766
0.147004
0.129213
0.11664
0.124455
-0.0192574
0.0823225
0.162319
-0.094865
-0.353134
-0.307484
-0.432779
0.159444
0.160313
0.152572
0.149253
0.148284
0.144763
0.143763
0.140193
0.139433
0.134838
0.13386
0.128128
0.126887
0.116113
0.116163
0.111872
0.0733237
0.101265
0.156282
0.167065
-0.116524
0.0281677
-0.304935
0.103289
0.109527
0.102377
0.0988479
0.0975306
0.0957586
0.0961192
0.0951192
0.0964134
0.0960294
0.0977195
0.0942606
0.100482
0.0988577
0.103948
0.122287
0.10423
0.102553
0.199746
-0.0892308
0.066819
0.313802
0.572122
0.0521188
0.0549219
0.0535263
0.0513488
0.0508894
0.0497836
0.0514504
0.0507477
0.0558453
0.0549383
0.0635934
0.0685396
0.0893583
0.0744376
0.0967918
0.105284
0.110759
0.126753
0.12262
0.0908384
0.109309
0.132277
0.187698
0.0104443
0.0102077
0.00971702
0.00923449
0.00972873
0.0105092
0.0129071
0.0148116
0.0208278
0.0195505
0.0275557
0.0410551
0.0283404
0.0667345
0.0693631
0.106793
0.114638
0.132199
0.148327
0.0224109
0.37521
0.207896
0.549868
-0.054913
-0.0548281
-0.0552867
-0.0554094
-0.054844
-0.0534724
-0.05089
-0.0483609
-0.0431234
-0.0432367
-0.0416288
-0.0203188
-0.000947717
0.0466384
0.064891
0.102092
0.0963871
0.133924
0.157642
0.146074
0.215556
0.19704
0.430094
-0.0686447
-0.0689479
-0.0689286
-0.0686905
-0.0682516
-0.066011
-0.0662436
-0.0583228
-0.0563196
-0.0531304
-0.0461604
-0.0386475
-0.0269793
-0.00630533
0.0134151
0.0452174
0.0661077
0.0836909
0.101277
0.128391
0.185079
0.216076
0.0381463
-0.233021
-0.233617
-0.233468
-0.233311
-0.232718
-0.23139
-0.230704
-0.226788
-0.222673
-0.217435
-0.205765
-0.188923
-0.150681
-0.0785444
0.0376224
0.0892926
0.142171
0.130102
0.1319
0.175085
0.0639682
0.264769
0.0939312
0.0257577
0.0255874
0.0254893
0.0255773
0.0254864
0.0256168
0.0254417
0.0255084
0.0242736
0.0209122
0.0160884
-0.000108437
-0.0206832
-0.0885832
-0.152697
-0.141539
-0.0973256
-0.0741884
-0.0226036
-0.00562428
0.0495773
0.0734858
0.131317
819.23
701.296
763.555
727.144
881.273
914.02
956.556
903.288
1022.21
1006.61
983.268
1019.48
1103.15
1081.8
1085.41
1110.02
1124.34
1124.16
1130.88
1127.05
692.072
822.416
1011.16
1086.99
83.7155
143.087
263.911
305.533
4.55078
8.60167
19.8159
19.8761
2.1766
2.22243
2.365
2.44095
2.18407
2.18982
2.2374
2.2856
2.17015
2.20333
2.26853
2.35583
2.07761
2.14205
2.23761
2.30646
1.94626
2.10363
2.18519
2.29339
1.96474
2.05476
2.15997
2.23483
1.92666
2.04444
2.14369
2.21667
1.78999
1.71863
2.11158
2.14793
1.89323
1.88825
1.9423
1.93966
1.69038
1.70131
1.73153
1.82188
1.49601
1.49145
1.48565
1.5687
1.04351
1.18685
1.13527
1.04484
0.189565
0.516511
0.380073
0.353651
-0.073868
-0.186642
-0.320457
-0.271932
-0.39189
-0.390233
-0.653159
-1.236
-1.37505
-0.864155
-0.65125
-1.37383
-2.02754
-0.373878
-0.622337
-1.63984
-0.232637
0.487214
-1.83228
-4.05948
1.58914
0.0549566
-3.87081
-4.53361
1.7213
-1.97379
-4.10079
-4.56383
2.26029
-1.49964
-3.39286
-3.88485
3.11104
0.294749
-2.47565
-3.10881
1.91763
2.35299
0.739975
-2.21021
0.581863
3.14242
2.99378
0.68775
0.326311
3.10537
3.64612
3.19559
-0.154375
1.57301
3.81215
4.07825
-0.0940552
0.713135
2.75001
4.30519
-0.217855
0.777812
1.86917
2.47446
0.0863229
0.744737
2.20504
3.42202
-0.417685
-0.0456091
1.31603
3.38574
-0.0151056
0.104117
0.338802
1.55567
0.317024
0.243153
0.246312
0.46825
0.193928
0.223758
0.300084
0.134002
0.0296013
-0.00865516
-0.04975
0.0289595
340.395
260.131
240.922
240.669
240.325
239.783
237.979
238.224
236.903
236.509
234.876
234.461
233.041
235.949
260.663
288.362
275.591
250.09
430.343
879.935
439.609
240.823
240.87
240.791
240.362
239.282
238.602
237.175
236.605
237.179
245.76
239.329
261.089
363.638
553.377
498.255
408.75
905.063
1005.76
1018.48
601.596
264.745
242.923
240.388
239.608
238.16
237.859
236.008
241.398
298.823
325.983
597.958
992.05
1178.69
1255.79
820.093
1496.11
1069.46
1063.89
1045.24
798.662
515.381
290.253
246.314
238.633
237.082
236.219
244.727
496.331
1051.11
1204.93
1013.78
1508.76
1848.84
1400.38
1954.83
1138.04
1193.4
1150.64
1061.75
1184.67
916.209
595.892
294.717
239.881
239.844
279.339
864.763
1211.03
1247.67
1256.21
1590.36
1740.82
1688.84
2123.58
1200.68
1030.58
1108.5
1204.54
1199.83
1064.28
1287.27
940.906
480.401
422.522
805.144
1208.92
1321.7
1314.66
1446.97
1706.19
1735.76
1877.07
2105.71
626.662
338.975
303.846
544.643
754.878
757.618
1086.63
998.98
1001
1236.06
1067.15
1312.45
1552.98
979.719
1253.53
1558.28
1805.62
1799.31
2107.41
93.303
43.2705
22.5794
55.3877
102.953
103.691
256.881
344.561
489.359
636.595
642.555
715.424
796.305
362.214
724.524
1476.46
1763.85
1688.47
1981.93
4.43509
4.05928
3.73516
4.15856
4.73791
5.9714
5.97399
16.9053
48.6955
82.2331
98.6818
109.378
146.901
137.408
752.86
1668.47
1848.59
1100.15
1661.25
2.45168
2.60999
2.97195
3.24001
3.48638
4.11067
4.47342
4.69315
5.59388
6.86604
11.8258
17.9893
33.8286
147.484
850.986
1519.14
1500.87
805.719
1411.11
2.4624
2.82817
2.95748
3.28526
3.80519
4.25209
4.35724
4.51469
4.70516
5.18166
5.82481
12.47
48.9942
110.846
474.687
1368.55
851.252
478.917
783.78
2.47917
2.64019
3.14215
3.28448
3.6756
4.20355
4.42339
4.67825
4.70083
5.37181
5.61155
14.0617
32.0285
17.2513
129.121
690.043
124.216
93.3301
215.159
2.42354
2.94555
3.05126
3.25479
3.57177
3.99567
4.51094
4.71838
5.01141
5.2431
5.3441
11.1276
10.6216
9.63557
50.7872
601.098
147.538
104.291
315.356
2.4308
2.67718
2.99243
3.3099
3.73019
4.04397
4.40743
4.64854
5.02782
5.27538
5.23562
7.29595
6.69164
7.61696
22.3181
547.072
119.923
247.501
1023.65
2.30551
2.44963
2.68498
2.72056
3.60398
4.10926
4.5362
4.53648
5.02238
4.96225
5.55394
6.44771
6.18003
6.88346
13.2563
553.363
143.133
232.483
1010.08
2.36745
2.17412
2.72976
2.91447
3.89585
4.25589
4.33068
4.45143
5.05228
5.00009
5.9181
6.03523
5.87543
6.23888
7.82216
296.376
259.815
205.021
584.696
2.21365
1.80859
2.07764
2.13655
3.77114
4.29993
4.39164
4.65699
5.14677
5.09989
5.77308
5.78514
5.77808
5.96947
6.85657
148.036
183.797
151.33
587.03
1.82163
2.02926
1.94278
1.97805
3.09926
4.43366
4.25194
4.71831
5.3974
5.50004
5.43992
5.81283
5.76854
5.93629
8.84503
100.711
87.2135
79.8663
1133.68
1.75762
1.89351
2.06288
1.21018
2.85741
3.56817
4.61486
4.80327
4.74331
5.5105
5.79702
5.84473
5.8542
5.89378
33.9122
50.8461
51.9821
53.1884
1327.57
1.15029
1.70523
0.494078
0.981436
2.48072
3.63384
4.90416
4.9979
5.00906
5.46676
5.76905
5.96562
6.19076
11.0842
254.964
49.1737
62.918
153.205
1720.52
0.368121
0.712613
0.772961
0.90279
2.34924
4.20114
9.76277
7.78698
5.46767
6.00141
6.99343
31.6487
97.009
235.348
433.939
51.0466
219.113
463.264
1973.52
-0.264723
-0.14513
0.0249641
0.653118
1.11191
6.23681
10.476
10.3024
6.55495
6.22829
20.0716
205.642
501.46
512.202
451.493
56.6869
113.514
281.497
1953.23
-1.55036
0.939087
1.31078
1.29666
0.611038
3.96212
8.91219
10.2742
6.38522
8.02117
37.0986
214.426
430.744
533.452
306.101
71.0562
31.4258
34.4017
1245.51
-2.56976
-1.5223
0.200866
-1.85423
-3.38478
-1.83775
5.42763
8.12177
5.75212
12.0238
71.7567
86.8271
128.355
222.403
133.326
131.102
41.3083
18.3037
300.803
-2.64005
-5.27766
-6.12567
-7.14176
-5.77366
-5.33208
0.486874
6.64817
4.38929
22.0289
46.6792
19.4773
23.6122
54.0271
77.5781
132.929
26.1412
15.317
269.754
-4.30408
-6.4297
-8.42772
-9.50358
-8.72929
-7.68267
-1.62549
5.80591
4.96817
20.2936
18.8053
16.2566
37.9576
50.4807
49.4172
36.1484
34.0915
22.5118
1101.86
-5.43333
-7.2926
-8.99496
-10.5338
-10.2569
-10.0727
-5.14299
1.06188
6.21136
19.1344
4.80565
16.7965
24.5813
27.9655
41.2329
78.9626
91.2628
217.278
1854.29
-5.56166
-6.62318
-8.79646
-11.0384
-9.52401
-6.52743
-7.51464
-0.125681
11.3413
10.5119
0.0780989
5.4373
0.589865
1.17995
20.1703
80.3393
131.969
330.55
1881.23
-4.3695
-5.76456
-7.399
-8.79791
-6.93931
-4.56952
-3.48533
1.54159
6.02192
2.51181
-2.97256
-1.18444
-0.780576
-2.37065
3.64294
59.7481
174.592
235.367
693.167
-3.74627
-4.97881
-4.60872
-5.47636
-4.28949
-2.47255
-1.46938
0.145649
-0.296481
-2.76951
-3.34026
-3.07123
-1.62906
-3.04578
-2.52394
14.8225
219.867
619.526
145.753
-3.03498
-4.12829
-4.82061
-2.87328
-2.17842
-2.05747
-0.212312
-0.235988
-3.26857
-3.54756
-4.14212
-4.52094
-2.40931
-3.00097
-2.65142
-1.97043
43.8533
855.242
743.702
-2.02034
-2.81974
-3.57638
-1.76257
-1.199
-0.498545
-0.301662
-0.147532
-0.0563192
-2.33557
-3.79731
-4.01911
-3.23992
-2.91259
-2.09037
0.713319
23.2447
830.613
1901.72
-0.45849
-1.93477
-2.15085
-1.53597
-1.33638
-0.694369
0.232652
-0.663449
-0.192558
-1.20823
-2.86593
-3.75161
-2.29381
-2.12143
-0.52739
2.79237
100.742
1386.24
1981.06
0.0889995
-1.33509
0.823173
0.740517
-0.968861
-0.216283
-0.0179897
-1.00587
-0.107654
-0.284173
-1.8784
-1.41617
1.17485
5.47556
6.23453
45.4015
859.946
1970.64
2058.7
0.583583
-0.49705
0.853932
1.64454
0.116206
-1.16996
-0.793416
1.47182
7.4678
26.5829
23.3143
9.27513
22.6593
56.0899
73.618
441.8
1121.55
1369.97
2059.87
2.92069
0.167814
0.260904
2.38419
1.57337
-0.506193
0.298793
6.0004
41.7237
43.8779
43.5824
16.7727
37.4744
76.3915
77.3229
283.013
264.066
373.845
2030.96
2.80144
-0.408172
0.0511994
1.68431
6.8765
6.69847
6.35015
16.099
27.633
25.6461
16.4791
4.78789
13.1112
18.2498
13.0919
37.2494
28.4716
61.8191
1156.41
4.0652
1.71264
1.38813
3.20543
3.98406
3.96288
5.77993
8.66945
5.7355
1.92083
0.509923
0.317661
0.565767
0.287559
0.191617
1.57492
1.67824
5.58822
188.698
3.82334
4.57776
3.6655
2.97226
0.591576
0.621651
1.71087
1.02496
0.32475
-0.0215132
-0.124235
-0.211569
-0.045985
0.0884553
-0.0949034
0.0627835
-0.0106285
2.44701
375.689
1.31776
3.4761
3.2244
1.65612
-0.0498243
-0.108921
0.0789855
0.0714268
0.0500488
0.0546241
-0.0801249
-0.017032
4.1245e-05
0.0511115
0.120427
0.0731989
0.66266
8.73777
1959.58
0.285825
0.871808
0.758282
0.283416
-0.0730554
-0.0389188
0.0241474
0.0150305
0.0708866
0.0140099
-0.0572607
-0.0756521
-0.0728298
0.0873143
-0.114196
0.475408
0.637953
199.582
2490.95
-0.0998964
-0.103698
-0.343676
-0.24182
-0.1823
-0.152689
-0.0894408
-0.0510899
-0.0268134
-0.00785977
-0.0328491
-0.0417012
-0.108998
-0.4175
-0.292952
-1.98913
-0.0752773
26.0424
1033.58
)
;

boundaryField
{
    leftWall
    {
        type            zeroGradient;
    }
    rightWall
    {
        type            zeroGradient;
    }
    lowerWall
    {
        type            zeroGradient;
    }
    atmosphere
    {
        type            totalPressure;
        rho             rho;
        psi             none;
        gamma           1;
        p0              uniform 0;
        value           nonuniform List<scalar> 
46
(
-0.145092
-0.146626
-0.14637
-0.146088
-0.145603
-0.144953
-0.1445
-0.1433
-0.142199
-0.142523
-0.13967
-0.142844
-0.133838
-0.142445
-0.130086
-0.102272
-0.0691806
-0.0543032
-0.0306947
-0.020602
-0.0113836
0
0
0
0
0
0
0
0
0
0
0
0
0
0
0
-0.000103736
-0.0236616
-0.0475456
-0.0781836
-0.211203
-0.292934
-0.605984
0
0
0
)
;
    }
    defaultFaces
    {
        type            empty;
    }
}


// ************************************************************************* //
