/*--------------------------------*- C++ -*----------------------------------*\
| =========                 |                                                 |
| \\      /  F ield         | foam-extend: Open Source CFD                    |
|  \\    /   O peration     | Version:     4.1                                |
|   \\  /    A nd           | Web:         http://www.foam-extend.org         |
|    \\/     M anipulation  |                                                 |
\*---------------------------------------------------------------------------*/
FoamFile
{
    version     2.0;
    format      ascii;
    class       surfaceScalarField;
    location    "0.4";
    object      phi;
}
// * * * * * * * * * * * * * * * * * * * * * * * * * * * * * * * * * * * * * //

dimensions      [0 3 -1 0 0 0 0];

internalField   nonuniform List<scalar> 
4432
(
3.10442e-06
-3.10442e-06
5.53747e-06
-2.43305e-06
9.63618e-06
-4.09871e-06
1.25306e-05
-2.89437e-06
1.58348e-05
-3.3042e-06
1.84632e-05
-2.62844e-06
2.15846e-05
-3.12137e-06
2.42531e-05
-2.66852e-06
2.6009e-05
-1.75597e-06
2.67354e-05
-7.26403e-07
4.36479e-05
-1.69125e-05
4.51246e-05
-1.47673e-06
4.60857e-05
-9.61041e-07
4.60109e-05
7.47749e-08
4.51986e-05
8.123e-07
4.41789e-05
1.01972e-06
4.27664e-05
1.41247e-06
4.06591e-05
2.10735e-06
3.78821e-05
2.77695e-06
3.23905e-05
5.49162e-06
2.4672e-05
7.71853e-06
1.43674e-05
1.03046e-05
1.43674e-05
3.12243e-06
-6.22685e-06
5.71668e-06
-5.02729e-06
9.74473e-06
-8.12677e-06
1.25034e-05
-5.65307e-06
1.59446e-05
-6.74534e-06
1.87414e-05
-5.42527e-06
2.20031e-05
-6.38303e-06
2.45285e-05
-5.19396e-06
2.66329e-05
-3.86038e-06
2.6881e-05
-9.74515e-07
4.05275e-05
-3.05589e-05
4.28094e-05
-3.75864e-06
4.41702e-05
-2.32186e-06
4.45796e-05
-3.34679e-07
4.43963e-05
9.95611e-07
4.35325e-05
1.88352e-06
4.13134e-05
3.63157e-06
3.93123e-05
4.10844e-06
3.74096e-05
4.67971e-06
3.20175e-05
1.08837e-05
2.49606e-05
1.47754e-05
1.30688e-05
2.21964e-05
2.74362e-05
3.0132e-06
-9.24006e-06
5.8555e-06
-7.86958e-06
9.59994e-06
-1.18712e-05
1.21687e-05
-8.22181e-06
1.60476e-05
-1.06242e-05
1.90637e-05
-8.44139e-06
2.19705e-05
-9.28989e-06
2.52599e-05
-8.48336e-06
2.55897e-05
-4.19012e-06
4.47765e-05
-2.01614e-05
3.89446e-05
-2.47269e-05
4.19538e-05
-6.7679e-06
4.33258e-05
-3.69379e-06
4.28566e-05
1.34516e-07
4.20686e-05
1.78353e-06
4.0824e-05
3.12812e-06
3.93526e-05
5.10297e-06
3.80154e-05
5.44568e-06
3.6157e-05
6.53812e-06
3.15241e-05
1.55166e-05
2.51724e-05
2.11271e-05
1.51027e-05
3.22661e-05
4.25389e-05
2.89539e-06
-1.21355e-05
6.00635e-06
-1.09805e-05
9.50267e-06
-1.53675e-05
1.22437e-05
-1.09629e-05
1.63724e-05
-1.47529e-05
1.91998e-05
-1.12688e-05
2.24645e-05
-1.25545e-05
2.2944e-05
-8.96293e-06
3.83026e-05
-1.95487e-05
3.72257e-05
-1.90845e-05
3.38883e-05
-2.13895e-05
3.41601e-05
-7.03973e-06
3.38345e-05
-3.36814e-06
3.3736e-05
2.32989e-07
3.38401e-05
1.67938e-06
3.2505e-05
4.46326e-06
3.13196e-05
6.2884e-06
3.03476e-05
6.41768e-06
2.95255e-05
7.36019e-06
2.63973e-05
1.86448e-05
2.2776e-05
2.47483e-05
1.40591e-05
4.0983e-05
5.6598e-05
2.66744e-06
-1.48029e-05
6.01591e-06
-1.4329e-05
9.57969e-06
-1.89313e-05
1.23907e-05
-1.37738e-05
1.59577e-05
-1.832e-05
1.84534e-05
-1.37645e-05
2.21e-05
-1.62011e-05
2.20729e-05
-8.93584e-06
3.41021e-05
-3.15779e-05
3.26647e-05
-1.7647e-05
3.0752e-05
-1.94769e-05
3.20268e-05
-8.31448e-06
3.1945e-05
-3.28633e-06
3.07897e-05
1.38828e-06
2.93047e-05
3.16441e-06
2.80981e-05
5.66984e-06
2.7185e-05
7.2015e-06
2.55089e-05
8.09377e-06
2.49635e-05
7.90558e-06
2.23812e-05
2.12271e-05
2.01511e-05
2.69785e-05
1.56418e-05
4.54923e-05
7.22398e-05
2.66657e-06
-1.74695e-05
6.27379e-06
-1.79362e-05
9.685e-06
-2.23425e-05
1.21153e-05
-1.62041e-05
1.51729e-05
-2.13776e-05
1.86553e-05
-1.72469e-05
1.94796e-05
-1.70255e-05
3.22257e-05
-2.16819e-05
2.9957e-05
-2.93092e-05
3.11734e-05
-1.88635e-05
3.05107e-05
-1.88142e-05
3.10015e-05
-8.80521e-06
3.04267e-05
-2.71151e-06
2.90319e-05
2.78308e-06
2.80545e-05
4.14179e-06
2.67271e-05
6.99723e-06
2.55987e-05
8.32987e-06
2.44868e-05
9.20565e-06
2.41338e-05
8.25867e-06
2.06704e-05
2.46904e-05
1.88377e-05
2.88113e-05
1.46293e-05
4.97006e-05
8.68691e-05
2.82483e-06
-2.02943e-05
6.26085e-06
-2.13722e-05
9.01948e-06
-2.51012e-05
1.17004e-05
-1.8885e-05
1.50092e-05
-2.46864e-05
1.67127e-05
-1.89504e-05
1.70562e-05
-1.73689e-05
2.9124e-05
-3.37496e-05
2.89074e-05
-2.90926e-05
3.05695e-05
-2.05256e-05
3.08234e-05
-1.90681e-05
3.16191e-05
-9.60092e-06
3.10138e-05
-2.10616e-06
2.94691e-05
4.32771e-06
2.83689e-05
5.24205e-06
2.75355e-05
7.83065e-06
2.69731e-05
8.89225e-06
2.45951e-05
1.15837e-05
2.49133e-05
7.94041e-06
2.15554e-05
2.80483e-05
2.12824e-05
2.90843e-05
9.89381e-06
6.10892e-05
9.67629e-05
3.12301e-06
-2.34173e-05
6.36258e-06
-2.46118e-05
8.8513e-06
-2.75899e-05
1.13495e-05
-2.13832e-05
1.47335e-05
-2.80704e-05
1.50853e-05
-1.93023e-05
2.73639e-05
-2.96475e-05
2.79281e-05
-3.43138e-05
2.91299e-05
-3.02945e-05
3.1871e-05
-2.32667e-05
3.2968e-05
-2.0165e-05
3.32872e-05
-9.92009e-06
3.2028e-05
-8.46956e-07
2.98113e-05
6.54433e-06
2.94807e-05
5.57265e-06
2.96743e-05
7.6371e-06
2.91652e-05
9.40135e-06
2.84286e-05
1.23202e-05
2.72724e-05
9.09666e-06
2.39524e-05
3.13683e-05
2.3719e-05
2.93177e-05
9.65294e-06
7.51553e-05
0.000106416
2.79074e-05
-2.79074e-05
5.63376e-05
-2.84302e-05
9.44927e-05
-3.81551e-05
0.000127707
-3.32145e-05
0.000157152
-2.94449e-05
0.00017189
-1.47375e-05
0.000168275
3.6146e-06
0.000168221
5.37353e-08
0.000166
2.22097e-06
0.000129204
3.67963e-05
8.13689e-06
0.000121067
-0.000184188
0.000192325
-0.000254402
7.02137e-05
-0.000270741
1.63391e-05
-0.000326889
5.61476e-05
-0.00034516
1.82713e-05
-0.000321374
-2.37864e-05
-0.000229594
-9.17801e-05
-0.000229594
1.55676e-05
-4.3475e-05
3.94979e-05
-5.23604e-05
6.53281e-05
-6.39854e-05
8.88736e-05
-5.676e-05
0.000110181
-5.07525e-05
7.49442e-05
2.04994e-05
8.6552e-05
-7.99319e-06
9.00873e-05
-3.48158e-06
8.58375e-05
6.47082e-06
5.97696e-05
6.28642e-05
-7.56055e-05
0.000256442
-0.00023978
0.0003565
-0.000312671
0.000143104
-0.000326565
3.0233e-05
-0.000222978
-4.74396e-05
-0.00019823
-6.47651e-06
-0.000282194
6.0178e-05
-0.000199756
-0.000174218
-0.00042935
1.91294e-05
-6.26044e-05
8.62463e-05
-0.000119477
0.000106849
-8.45883e-05
0.000101764
-5.16752e-05
6.45649e-05
-1.35529e-05
0.000130118
-4.50538e-05
0.000140418
-1.82926e-05
0.000130035
6.90124e-06
7.42507e-05
6.22548e-05
-8.12121e-05
0.000218327
-0.000245609
0.000420839
-0.000268646
0.000379538
-0.000299262
0.00017372
-0.00028115
1.21207e-05
-0.000210889
-0.000117701
-0.000192923
-2.44425e-05
-0.000132162
-5.83062e-07
-0.000111449
-0.00019493
-0.0005408
9.29358e-06
-7.1898e-05
8.0612e-05
-0.000190796
5.89085e-05
-6.28849e-05
6.62193e-05
-5.8986e-05
7.28697e-05
-2.02034e-05
0.000122422
-9.46063e-05
0.00010641
-2.2807e-06
3.11652e-05
8.21464e-05
-0.000111312
0.000204732
-0.000235851
0.000342866
-0.000274888
0.000459876
-0.000281144
0.000385793
-0.00028271
0.000175286
-0.000260723
-9.8661e-06
-0.000269469
-0.000108954
-0.000256461
-3.74508e-05
-0.000182758
-7.42858e-05
-7.46636e-05
-0.000303025
-0.000615463
1.62255e-05
-8.81234e-05
1.28168e-05
-0.000187387
2.36122e-05
-7.36803e-05
4.7747e-05
-8.31207e-05
4.73758e-05
-1.98322e-05
2.62099e-05
-7.34403e-05
-2.01763e-05
4.41055e-05
-0.000116137
0.000178107
-0.000248082
0.000336677
-0.000182128
0.000276913
-0.000280584
0.000558332
-0.000273565
0.000378774
-0.000265327
0.000167048
-0.000242031
-3.31625e-05
-0.000221412
-0.000129573
-0.000123194
-0.000135669
-9.2966e-05
-0.000104513
-6.09665e-05
-0.000335024
-0.00067643
-1.19229e-06
-8.6931e-05
8.14201e-06
-0.000196721
2.06953e-06
-6.76079e-05
-6.81226e-06
-7.42388e-05
-1.55491e-05
-1.10953e-05
-7.83363e-05
-1.0653e-05
-0.000154598
0.000120368
-0.000209878
0.000233387
-0.000163344
0.000290143
-0.000277967
0.000391536
-0.000277846
0.000558211
-0.000229102
0.000330031
-0.000104288
4.22345e-05
-8.81189e-05
-4.93318e-05
-0.000134014
-8.36771e-05
-0.000110665
-0.000159019
-4.51249e-05
-0.000170054
-2.87118e-05
-0.000351437
-0.000705141
-6.91662e-06
-8.00143e-05
-3.16988e-06
-0.000200468
-1.76231e-05
-5.31548e-05
-5.40543e-05
-3.78076e-05
-4.95655e-05
-1.55839e-05
-0.000146306
8.60875e-05
-0.000212795
0.000186857
-0.000219105
0.000239697
-0.000165107
0.000236145
-0.000245475
0.000471903
-0.000228549
0.000541285
-6.72073e-05
0.000168689
-8.57276e-05
6.07549e-05
-8.10031e-05
-5.40563e-05
-4.30093e-05
-0.000121671
-5.71863e-05
-0.000144842
-1.71242e-05
-0.000210116
1.84743e-06
-0.000370409
-0.000703294
-1.50379e-05
-6.49764e-05
-1.28e-05
-0.000202706
-4.52532e-05
-2.07016e-05
-8.73193e-05
4.25855e-06
-0.00012534
2.24368e-05
-0.000161358
0.000122105
-0.000215653
0.000241152
-0.000123105
0.000147149
-0.000219682
0.000332722
-0.000204107
0.000456328
-0.000107937
0.000445115
1.71239e-06
5.90394e-05
-1.26506e-05
7.51179e-05
-1.83144e-05
-4.83925e-05
-3.1144e-06
-0.000136871
-6.75436e-07
-0.000147281
-7.06629e-07
-0.000210085
8.41389e-06
-0.00037953
-0.00069488
6.34892e-06
-2.97662e-05
1.23396e-05
-3.06025e-05
1.70353e-05
-3.22856e-05
2.38784e-05
-2.82263e-05
2.77956e-05
-3.19876e-05
4.83093e-05
-3.9816e-05
5.56336e-05
-3.69718e-05
6.03288e-05
-3.9009e-05
6.5086e-05
-3.50518e-05
7.13805e-05
-2.95612e-05
7.46997e-05
-2.34842e-05
7.66766e-05
-1.1897e-05
7.5282e-05
5.47607e-07
7.20695e-05
9.75683e-06
6.85245e-05
9.11763e-06
6.11431e-05
1.50186e-05
6.09747e-05
9.56972e-06
6.30856e-05
1.02094e-05
6.5118e-05
7.06418e-06
6.1794e-05
3.46923e-05
4.11175e-05
4.99942e-05
3.45062e-05
8.17666e-05
5.19564e-05
8.89657e-05
6.0677e-06
-3.58339e-05
1.24545e-05
-3.69892e-05
1.73392e-05
-3.71703e-05
3.24678e-05
-4.33549e-05
3.98173e-05
-3.93371e-05
4.72234e-05
-4.72221e-05
5.39442e-05
-4.36925e-05
6.33184e-05
-4.83831e-05
7.39618e-05
-4.56952e-05
8.24228e-05
-3.80222e-05
8.74282e-05
-2.84896e-05
8.92983e-05
-1.37671e-05
8.74718e-05
2.37417e-06
8.02493e-05
1.69793e-05
7.25191e-05
1.68479e-05
7.35233e-05
1.40143e-05
6.76044e-05
1.54887e-05
6.24586e-05
1.53551e-05
4.34782e-05
2.60446e-05
4.87749e-05
2.93956e-05
5.05952e-05
4.8174e-05
0.000101622
3.07397e-05
3.71689e-05
0.00011641
9.80942e-06
-4.56434e-05
1.71905e-05
-4.43703e-05
2.64271e-05
-4.64068e-05
3.17446e-05
-4.86724e-05
3.88812e-05
-4.64738e-05
4.62082e-05
-5.45492e-05
5.666e-05
-5.41443e-05
7.29716e-05
-6.46947e-05
8.53493e-05
-5.80729e-05
9.30133e-05
-4.56862e-05
9.66374e-05
-3.21138e-05
9.83929e-05
-1.55226e-05
9.04372e-05
1.03299e-05
7.95585e-05
2.7858e-05
7.49628e-05
2.14436e-05
7.14165e-05
1.75606e-05
6.86207e-05
1.82844e-05
7.01396e-05
1.38362e-05
8.21043e-05
1.40799e-05
9.20275e-05
1.94723e-05
0.000103085
3.71169e-05
9.70385e-05
3.67859e-05
2.93751e-05
0.000104832
1.35672e-05
-5.92105e-05
1.86489e-05
-4.9452e-05
2.59248e-05
-5.36827e-05
3.00509e-05
-5.27985e-05
3.95531e-05
-5.59761e-05
5.03079e-05
-6.53039e-05
5.97164e-05
-6.35528e-05
6.44598e-05
-6.94381e-05
6.86113e-05
-6.22243e-05
7.56221e-05
-5.26971e-05
8.02549e-05
-3.67465e-05
7.1809e-05
-7.07669e-06
5.99386e-05
2.22002e-05
5.97938e-05
2.80027e-05
6.09351e-05
2.03024e-05
5.8471e-05
2.00247e-05
6.02481e-05
1.65073e-05
7.07041e-05
3.38022e-06
8.83986e-05
-3.61457e-06
0.000100656
7.21476e-06
0.000108678
2.90954e-05
0.00011251
3.29532e-05
4.25989e-05
9.92865e-05
-4.28507e-06
-5.49255e-05
-5.85428e-06
-4.78828e-05
1.56608e-06
-6.11031e-05
1.27687e-05
-6.4001e-05
1.99716e-05
-6.3179e-05
1.72444e-05
-6.25766e-05
1.04635e-05
-5.67719e-05
-1.49848e-06
-5.74761e-05
-1.26467e-05
-5.1076e-05
-2.19377e-05
-4.34061e-05
-2.47618e-05
-3.39225e-05
-2.07379e-05
-1.11006e-05
8.37522e-07
6.24819e-07
2.17695e-05
7.07079e-06
3.62323e-05
5.83948e-06
4.1759e-05
1.4498e-05
3.14576e-05
2.68088e-05
1.79535e-05
1.68843e-05
4.2626e-05
-2.82871e-05
6.38213e-05
-1.39806e-05
0.000115891
-2.29742e-05
0.000111411
3.7433e-05
4.61708e-05
0.000107839
-8.05503e-06
-4.68704e-05
-9.36237e-06
-4.65754e-05
-1.25165e-06
-6.92138e-05
1.08796e-05
-7.61322e-05
1.60636e-05
-6.8363e-05
1.16796e-05
-5.81925e-05
2.9686e-06
-4.8061e-05
-5.25806e-06
-4.92494e-05
-1.27335e-05
-4.36005e-05
-1.84192e-05
-3.77204e-05
-3.24281e-05
-1.99135e-05
-1.58567e-05
-2.76721e-05
9.31572e-06
-2.45476e-05
2.42896e-05
-7.90307e-06
3.82739e-05
-8.14484e-06
4.67421e-05
6.02989e-06
6.14284e-05
1.21225e-05
6.50211e-05
1.32917e-05
5.37107e-05
-1.69767e-05
6.23007e-05
-2.25706e-05
4.24313e-05
-3.10483e-06
5.62232e-05
2.36411e-05
5.63233e-06
9.67618e-05
-2.37288e-06
-4.44975e-05
-1.55451e-06
-4.73938e-05
4.2512e-06
-7.50195e-05
1.20872e-05
-8.39682e-05
1.37908e-05
-7.00666e-05
1.07745e-05
-5.51762e-05
5.7595e-06
-4.30459e-05
4.58278e-08
-4.35357e-05
-3.86444e-06
-3.96903e-05
-4.06096e-06
-3.75239e-05
-1.87519e-06
-2.20993e-05
4.55018e-06
-3.40974e-05
1.1778e-05
-3.17753e-05
1.68739e-05
-1.2999e-05
3.07028e-05
-2.19737e-05
4.01854e-05
-3.45265e-06
5.04522e-05
1.85568e-06
6.18764e-05
1.86753e-06
6.3119e-05
-1.82193e-05
7.31681e-05
-3.26196e-05
7.60581e-05
-5.99489e-06
9.05076e-05
9.19166e-06
1.1611e-05
8.45289e-05
2.02807e-06
-4.65256e-05
6.34867e-06
-5.17144e-05
1.31445e-05
-8.18153e-05
1.83975e-05
-8.92212e-05
1.72037e-05
-6.88728e-05
1.59552e-05
-5.39277e-05
1.36041e-05
-4.06949e-05
1.19204e-05
-4.18519e-05
8.79883e-06
-3.65687e-05
9.69356e-06
-3.84186e-05
6.3557e-06
-1.87614e-05
1.14531e-05
-3.91948e-05
4.52011e-06
-2.48423e-05
1.06169e-05
-1.90958e-05
2.2862e-05
-3.42188e-05
3.73722e-05
-1.79628e-05
4.93344e-05
-1.01065e-05
5.69024e-05
-5.70039e-06
5.07015e-05
-1.20184e-05
3.96949e-05
-2.1613e-05
5.12933e-05
-1.75933e-05
6.09287e-05
-4.43712e-07
3.07901e-05
4.17495e-05
3.71344e-06
-5.0239e-05
9.49908e-06
-5.75e-05
1.63232e-05
-8.86394e-05
2.12069e-05
-9.4105e-05
1.86438e-05
-6.63097e-05
1.72817e-05
-5.25656e-05
1.51772e-05
-3.85903e-05
1.41113e-05
-4.07861e-05
6.47252e-06
-2.89298e-05
6.6498e-06
-3.85958e-05
2.01264e-05
-3.2238e-05
2.1248e-05
-4.03164e-05
2.12105e-05
-2.48048e-05
2.39718e-05
-2.18571e-05
3.14829e-05
-4.17298e-05
4.44345e-05
-3.09144e-05
6.25429e-05
-2.82149e-05
6.61663e-05
-9.32372e-06
6.26792e-05
-8.53124e-06
6.54278e-05
-2.43616e-05
6.06399e-05
-1.28053e-05
6.14952e-05
-1.29899e-06
8.48955e-06
8.37957e-05
4.02889e-06
-5.42679e-05
9.4652e-06
-6.29363e-05
1.91451e-05
-9.83193e-05
2.42471e-05
-9.9207e-05
2.04194e-05
-6.2482e-05
2.0674e-05
-5.28202e-05
2.22802e-05
-4.01965e-05
2.0104e-05
-3.86099e-05
2.01372e-05
-2.8963e-05
1.43189e-05
-3.27775e-05
1.39759e-05
-3.1895e-05
1.15666e-05
-3.79071e-05
1.37764e-05
-2.70145e-05
3.0438e-05
-3.85187e-05
3.32661e-05
-4.45578e-05
2.87296e-05
-2.6378e-05
3.87681e-05
-3.82533e-05
3.92203e-05
-9.77595e-06
6.69541e-05
-3.6265e-05
6.91181e-05
-2.65255e-05
6.78926e-05
-1.15799e-05
6.47256e-05
1.86801e-06
8.8132e-06
6.4402e-05
3.79868e-06
-5.80666e-05
9.57548e-06
-6.87131e-05
2.03058e-05
-0.00010905
2.32489e-05
-0.00010215
1.92266e-05
-5.84598e-05
1.99984e-05
-5.3592e-05
2.20991e-05
-4.22973e-05
2.44825e-05
-4.09933e-05
2.50179e-05
-2.94984e-05
3.02662e-05
-3.80257e-05
2.89207e-05
-3.05495e-05
3.09917e-05
-3.9978e-05
3.09603e-05
-2.69831e-05
3.46492e-05
-4.22077e-05
2.50196e-05
-3.49283e-05
3.43131e-05
-3.56714e-05
3.77896e-05
-4.17298e-05
6.3429e-05
-3.54154e-05
6.9477e-05
-4.23129e-05
6.84014e-05
-2.54499e-05
5.94275e-05
-2.60595e-06
7.09666e-05
-9.6711e-06
-3.07851e-05
0.000110565
3.09348e-06
-6.11601e-05
5.55629e-06
-7.11759e-05
1.9444e-05
-0.000122937
2.05415e-05
-0.000103248
1.40521e-05
-5.19704e-05
1.21403e-05
-5.16802e-05
1.51221e-05
-4.52791e-05
2.76905e-05
-5.35618e-05
1.61699e-05
-1.79777e-05
3.71151e-05
-5.89709e-05
1.85527e-05
-1.19871e-05
3.30615e-05
-5.44869e-05
2.85304e-05
-2.2452e-05
4.76082e-05
-6.12855e-05
4.79689e-05
-3.5289e-05
5.88996e-05
-4.6602e-05
6.62963e-05
-4.91265e-05
6.86664e-05
-3.77854e-05
7.85966e-05
-5.22431e-05
6.06933e-05
-7.54651e-06
6.25287e-05
-4.44128e-06
6.46584e-05
-1.18008e-05
-3.64005e-05
7.02737e-05
2.15067e-06
-6.33107e-05
3.85894e-06
-7.28842e-05
1.61162e-05
-0.000135195
1.7243e-05
-0.000104374
7.2084e-06
-4.19358e-05
8.99187e-06
-5.34637e-05
1.95987e-05
-5.58859e-05
2.77697e-05
-6.17329e-05
4.00865e-05
-3.02945e-05
2.1773e-05
-4.06573e-05
4.2399e-05
-3.26131e-05
4.83345e-05
-6.04224e-05
5.10972e-05
-2.52146e-05
5.13142e-05
-6.15025e-05
4.98202e-05
-3.37949e-05
4.8599e-05
-4.53809e-05
5.44724e-05
-5.49999e-05
8.51073e-05
-6.84203e-05
6.13221e-05
-2.84578e-05
0.000105445
-5.1669e-05
0.000104567
-3.56363e-06
0.000115137
-2.23704e-05
-5.03125e-06
8.37674e-05
2.92713e-06
-6.62379e-05
4.57022e-06
-7.45273e-05
1.26886e-05
-0.000143313
7.97519e-06
-9.9661e-05
4.5496e-06
-3.85102e-05
8.86482e-06
-5.77789e-05
1.88296e-05
-6.58507e-05
2.065e-05
-6.35533e-05
3.23262e-05
-4.19707e-05
3.42083e-05
-4.25394e-05
3.74941e-05
-3.58989e-05
5.18249e-05
-7.47531e-05
5.30846e-05
-2.64743e-05
3.95386e-05
-4.79565e-05
4.77364e-05
-4.19927e-05
8.41361e-05
-8.17805e-05
8.89492e-05
-5.98129e-05
9.17801e-05
-7.12511e-05
8.08337e-05
-1.75114e-05
9.38763e-05
-6.47116e-05
0.000141188
-5.08749e-05
0.000150845
-3.20276e-05
-1.19391e-05
0.000157753
3.08622e-06
-6.93241e-05
6.31471e-06
-7.77558e-05
1.29873e-05
-0.000149986
9.95848e-06
-9.66322e-05
3.47194e-06
-3.20237e-05
1.1727e-05
-6.6034e-05
1.10711e-05
-6.51948e-05
1.26706e-05
-6.51528e-05
5.47563e-05
-8.40564e-05
5.03846e-05
-3.81677e-05
7.49532e-05
-6.04675e-05
4.53911e-05
-4.5191e-05
4.99939e-05
-3.1077e-05
4.70596e-05
-4.50222e-05
9.20638e-05
-8.69968e-05
5.86516e-05
-4.83683e-05
0.000101925
-0.000103086
6.05165e-05
-2.98426e-05
0.000114623
-7.16178e-05
9.00102e-05
-4.00989e-05
9.65273e-05
-5.73921e-05
0.000104438
-3.99389e-05
-1.49034e-05
0.000107403
1.57883e-06
-7.09029e-05
4.68728e-06
-8.08642e-05
6.08046e-06
-0.000151379
5.15406e-06
-9.57058e-05
3.30357e-06
-3.01732e-05
1.14954e-05
-7.42258e-05
1.14886e-05
-6.51881e-05
2.38284e-05
-7.74927e-05
1.96598e-05
-7.98878e-05
5.68449e-05
-7.53528e-05
4.11183e-05
-4.47408e-05
3.92683e-05
-4.3341e-05
4.0593e-05
-3.24017e-05
7.00764e-05
-7.45055e-05
7.60277e-05
-9.29481e-05
6.1576e-05
-3.39166e-05
6.05127e-05
-0.000102023
6.62763e-05
-3.56063e-05
8.58803e-05
-9.12217e-05
0.000102774
-5.6993e-05
0.000110966
-6.55839e-05
0.000120298
-4.92706e-05
-1.99585e-05
0.000125353
-1.14999e-06
-6.97529e-05
2.37365e-06
-8.43879e-05
6.30424e-06
-0.000155309
1.38181e-06
-9.07834e-05
7.94552e-06
-3.6737e-05
9.35458e-06
-7.56349e-05
1.16014e-05
-6.74349e-05
1.93605e-05
-8.52518e-05
3.14851e-05
-9.20124e-05
5.79185e-05
-0.000101786
5.51002e-05
-4.19225e-05
5.43886e-05
-4.26294e-05
5.67835e-05
-3.47966e-05
6.96632e-05
-8.73852e-05
5.08528e-05
-7.41377e-05
9.16758e-05
-7.47395e-05
6.48346e-05
-7.51817e-05
7.51531e-05
-4.59249e-05
8.6203e-05
-0.000102272
0.000109427
-8.02172e-05
0.000131493
-8.76497e-05
0.000133299
-5.10766e-05
-5.70028e-05
0.000170343
-1.06495e-06
-6.8688e-05
5.8978e-06
-9.13507e-05
2.68874e-06
-0.0001521
4.72776e-06
-9.28224e-05
1.51619e-06
-3.35254e-05
1.36705e-05
-8.77893e-05
1.81186e-05
-7.1883e-05
1.86141e-05
-8.57474e-05
2.61632e-05
-9.95615e-05
3.92683e-05
-0.000114891
4.61461e-05
-4.88003e-05
5.38899e-05
-5.03733e-05
6.59671e-05
-4.68737e-05
7.77448e-05
-9.91629e-05
8.16522e-05
-7.80451e-05
8.19858e-05
-7.50732e-05
6.42172e-05
-5.74131e-05
0.000117466
-9.91733e-05
0.000102035
-8.68413e-05
0.000127793
-0.000105975
0.000142404
-0.000102261
0.000148771
-5.74435e-05
-0.000103546
0.000195314
-8.03175e-06
-6.06563e-05
-1.56179e-05
-8.37646e-05
-3.58384e-07
-0.00016736
-1.57046e-05
-7.74762e-05
1.12911e-05
-6.05212e-05
1.54996e-06
-7.80481e-05
-8.49513e-06
-6.1838e-05
1.98172e-05
-0.00011406
2.26752e-05
-0.00010242
2.57784e-05
-0.000117994
4.03311e-05
-6.33531e-05
4.43959e-05
-5.44379e-05
5.94102e-05
-6.1888e-05
5.27097e-05
-9.24624e-05
9.47586e-05
-0.000120094
6.00775e-05
-4.03921e-05
0.000113128
-0.000110464
0.000123252
-0.000109297
0.000151681
-0.00011527
0.000141696
-9.59897e-05
0.000170277
-0.000130841
0.000265001
-0.000152168
-7.80523e-05
0.000239508
1.08567e-05
-7.1513e-05
2.6922e-05
-9.98299e-05
-2.12331e-05
-0.000119205
-1.14698e-05
-8.72395e-05
6.30632e-06
-7.82973e-05
1.48533e-05
-8.65951e-05
3.84211e-05
-8.54058e-05
1.04296e-05
-8.60684e-05
2.85114e-05
-0.000120501
3.1386e-05
-0.000120869
3.17248e-05
-6.36919e-05
3.08051e-05
-5.35183e-05
9.75554e-05
-0.000128638
6.24539e-05
-5.73609e-05
3.66852e-05
-9.43254e-05
6.45656e-05
-6.82725e-05
9.68689e-05
-0.000142767
0.000115787
-0.000128216
0.000106231
-0.000105714
0.000135572
-0.00012533
0.000160571
-0.00015584
0.000178961
-0.000170558
-0.000190128
0.000291037
1.06023e-06
-7.25732e-05
3.56726e-06
-0.000102337
-8.36133e-07
-0.000114801
-1.13971e-06
-8.69359e-05
6.31472e-06
-8.57517e-05
9.16754e-06
-8.9448e-05
1.99293e-05
-9.61676e-05
1.69404e-05
-8.30796e-05
2.53574e-05
-0.000128918
4.44308e-05
-0.000139942
5.14808e-05
-7.07419e-05
7.26888e-05
-7.47263e-05
2.79616e-05
-8.39111e-05
4.79516e-05
-7.73509e-05
4.18925e-05
-8.82663e-05
5.47379e-05
-8.1118e-05
7.10549e-05
-0.000159084
8.11275e-05
-0.000138289
0.000104099
-0.000128685
0.000129539
-0.000150771
0.000160058
-0.000186359
0.000182402
-0.000192902
-0.000221937
0.00021421
2.40392e-06
-7.49771e-05
6.25346e-06
-0.000106186
-1.65463e-07
-0.000108383
4.9765e-06
-9.20779e-05
3.81408e-06
-8.45893e-05
1.1403e-05
-9.70369e-05
9.54582e-06
-9.43105e-05
5.2905e-05
-0.000126439
5.68411e-05
-0.000132854
1.08262e-05
-9.39276e-05
2.11508e-05
-8.10666e-05
3.27936e-05
-8.63691e-05
3.92598e-05
-9.03772e-05
6.20986e-05
-0.00010019
6.94159e-05
-9.55836e-05
8.5488e-05
-9.71902e-05
7.52206e-05
-0.000148817
8.61968e-05
-0.000149265
0.000146107
-0.000188595
0.000128865
-0.000133528
0.000157256
-0.000214751
0.000198467
-0.000234113
-0.000311216
0.000287747
-6.65523e-06
-6.83219e-05
-4.70149e-06
-0.00010814
-7.05737e-06
-0.000106027
-1.26288e-05
-8.65064e-05
1.72137e-05
-0.000114432
9.65576e-06
-8.9479e-05
4.50177e-05
-0.000129673
2.62461e-05
-0.000107667
3.2901e-05
-0.000139509
2.07585e-05
-8.17851e-05
2.82356e-05
-8.85437e-05
2.53818e-05
-8.35154e-05
2.58692e-05
-9.08646e-05
4.02768e-05
-0.000114597
4.61468e-05
-0.000101454
6.37206e-05
-0.000114764
8.20399e-05
-0.000167136
0.0001504
-0.000217625
0.000100207
-0.000138402
0.000199118
-0.00023244
0.000246985
-0.000262618
0.000324679
-0.000311808
-0.000319598
0.000333062
1.56769e-05
-8.39988e-05
3.58522e-06
-9.60485e-05
-3.47164e-06
-9.89698e-05
1.86485e-05
-0.000108627
9.63512e-06
-0.000105418
3.96686e-05
-0.000119513
2.33249e-05
-0.000113329
2.59187e-05
-0.000110261
2.35836e-05
-0.000137174
1.28439e-05
-7.10455e-05
1.25234e-05
-8.82232e-05
1.48334e-05
-8.58254e-05
2.05309e-05
-9.65622e-05
1.61988e-05
-0.000110265
8.60967e-05
-0.000171351
7.17411e-05
-0.000100408
0.000109119
-0.000204514
0.000109451
-0.000217956
9.78992e-05
-0.00012685
0.000125966
-0.000260507
0.000154061
-0.000290712
0.000205411
-0.000363157
-0.000354945
0.000240758
-2.79958e-05
-5.6003e-05
3.88217e-06
-0.000127927
3.60991e-05
-0.000131187
2.51577e-05
-9.76853e-05
2.37489e-05
-0.00010401
2.06096e-05
-0.000116373
4.9306e-05
-0.000142025
2.01406e-05
-8.10957e-05
-1.91923e-05
-9.78415e-05
-4.3805e-06
-8.58573e-05
4.49152e-06
-9.70952e-05
1.39957e-05
-9.53297e-05
2.64414e-05
-0.000109008
2.72769e-05
-0.000111101
6.39303e-05
-0.000208005
5.96006e-05
-9.60787e-05
8.42388e-05
-0.000229152
9.75663e-05
-0.000231284
9.29917e-05
-0.000122276
0.000126997
-0.000294512
0.000160733
-0.000324449
0.000270163
-0.000472587
-0.00027404
0.000189258
-1.30487e-06
-5.46981e-05
2.64124e-06
-0.000131873
1.31877e-06
-0.000129864
3.46257e-06
-9.98291e-05
1.30458e-05
-0.000113593
2.64565e-05
-0.000129784
-1.6981e-05
-9.85878e-05
-7.71394e-06
-9.03628e-05
-6.15027e-06
-9.94052e-05
-7.26133e-07
-9.12814e-05
-1.47871e-07
-9.76735e-05
-3.02443e-06
-9.24531e-05
-7.19168e-06
-0.000104841
4.56048e-05
-0.000163897
4.01631e-05
-0.000202563
0.000117993
-0.000173909
4.10566e-05
-0.000152216
5.99423e-05
-0.00025017
9.30523e-05
-0.000155386
0.000171468
-0.000372927
0.000100312
-0.000253293
0.000152635
-0.000524911
-0.000242269
0.000120864
-3.84179e-06
-5.08564e-05
1.61175e-05
-0.000151832
3.14674e-05
-0.000145214
1.7262e-05
-8.56238e-05
6.08608e-07
-9.69395e-05
-2.54098e-05
-0.000103766
-1.7701e-05
-0.000106297
-8.97876e-06
-9.9085e-05
-8.75057e-06
-9.96334e-05
-2.89197e-06
-9.714e-05
-5.23704e-07
-0.000100042
4.89424e-06
-9.78711e-05
3.49134e-06
-0.000103438
2.23339e-05
-0.00018274
1.84715e-05
-0.000198701
5.11895e-05
-0.000206627
4.06222e-05
-0.000141649
6.38165e-05
-0.000273364
8.74955e-05
-0.000179065
9.26552e-05
-0.000378087
5.93735e-05
-0.000220011
-2.04668e-06
-0.00046349
-0.000191016
-5.32992e-05
3.84245e-05
-8.92809e-05
-8.57482e-08
-0.000113322
-3.50512e-05
-0.000110249
-1.37037e-05
-0.000106971
-6.36658e-06
-0.000104277
-4.04723e-06
-0.000106085
-7.4755e-06
-0.000102868
-5.69895e-06
-0.000100862
-5.02243e-06
-0.00010031
-2.16992e-06
-9.99925e-05
-1.33238e-06
-0.000100879
2.90375e-06
-0.000102107
2.93229e-06
-0.000103466
1.40368e-05
-0.000193844
1.19801e-05
-0.000196644
2.97827e-05
-0.000224429
1.81676e-05
-0.000130034
4.00172e-05
-0.000295214
3.81225e-05
-0.00017717
4.33005e-05
-0.000383265
5.9463e-05
-0.000236174
-0.000102583
-0.000301444
-0.000193187
-0.000100412
6.0421e-06
-9.53231e-05
1.32448e-06
-0.000108604
-6.36336e-07
-0.000108288
-2.28909e-06
-0.000105319
-3.04301e-06
-0.000103523
-6.22433e-06
-0.000102904
-6.64069e-06
-0.000102452
-5.19172e-06
-0.00010231
-4.45371e-06
-0.000101048
-2.03973e-06
-0.000102407
-9.6499e-07
-0.000101954
1.47254e-06
-0.000104545
1.96172e-06
-0.000103955
4.64051e-06
-0.000196523
-1.41286e-06
-0.000190591
1.07106e-05
-0.000236552
5.47675e-05
-0.00017409
-3.72001e-05
-0.000203246
3.00422e-06
-0.000217374
-3.84986e-05
-0.000341762
-4.96314e-05
-0.000225041
-0.000109564
-0.000241512
-0.000186201
-0.00011655
2.61247e-06
-9.79356e-05
-1.02362e-06
-0.000104968
-4.47859e-06
-0.000104833
-5.08318e-06
-0.000104714
-5.84348e-06
-0.000102762
-5.36157e-06
-0.000103386
-5.35698e-06
-0.000102456
-4.55199e-06
-0.000103115
-4.09804e-06
-0.000101502
-2.47883e-06
-0.000104026
-2.03787e-06
-0.000102395
-1.58807e-09
-0.000106581
-6.09124e-07
-0.000103348
-6.32223e-06
-0.00019081
-1.01983e-05
-0.000186715
-1.72746e-05
-0.000229476
-5.12782e-06
-0.000186237
-9.68643e-06
-0.000198687
3.44666e-06
-0.000230507
-0.000124108
-0.000214207
-6.20561e-05
-0.000287092
-0.000128009
-0.000175559
-0.000183936
-0.000130274
6.40253e-07
-9.8576e-05
-4.39839e-07
-0.000103888
-1.3373e-06
-0.000103936
-2.32693e-06
-0.000103724
-3.3283e-06
-0.000101761
-3.84086e-06
-0.000102873
-3.98044e-06
-0.000102317
-3.70586e-06
-0.00010339
-1.8807e-06
-0.000103327
-5.94672e-08
-0.000105847
2.74792e-06
-0.000105202
1.03619e-05
-0.000114195
1.92851e-05
-0.000112271
-3.65532e-05
-0.000134972
-2.3814e-05
-0.000199454
-4.22595e-05
-0.000211031
-2.66716e-05
-0.000201825
1.40347e-05
-0.000239394
-3.65874e-05
-0.000179885
-5.94191e-05
-0.000191376
-0.000166489
-0.000180022
-9.30582e-05
-0.00024899
-0.000141846
-0.000135148
-3.81622e-08
-9.85378e-05
-1.07818e-06
-0.000102848
-2.10064e-06
-0.000102913
-3.71352e-06
-0.000102112
-3.75384e-06
-0.000101721
-4.67687e-06
-0.00010195
-5.19273e-06
-0.000101801
-5.95907e-06
-0.000102624
-5.82151e-06
-0.000103464
-7.10628e-06
-0.000104562
-5.37149e-06
-0.000106937
-9.45549e-06
-0.000110111
-9.57125e-06
-0.000112155
-2.50999e-05
-0.000119443
-2.87144e-05
-0.000195839
-3.56622e-05
-0.000204083
-5.29354e-05
-0.000184552
-6.53225e-05
-0.000227006
-8.22702e-05
-0.000162938
-0.000111974
-0.000161672
-0.000133044
-0.000158952
-0.000117655
-0.000264379
-0.000101202
-0.000158299
-1.59226e-07
-9.83786e-05
-1.05715e-06
-0.000101951
-2.25854e-06
-0.000101712
-3.39871e-06
-0.000100971
-4.0989e-06
-0.00010102
-5.03964e-06
-0.000101009
-6.01791e-06
-0.000100823
-7.1703e-06
-0.000101471
-8.3452e-06
-0.00010229
-9.83652e-06
-0.000103071
-1.21896e-05
-0.000104584
-1.5803e-05
-0.000106498
-2.08459e-05
-0.000107113
-3.15747e-05
-0.000108714
-3.58341e-05
-0.00019158
-4.23361e-05
-0.000197581
-4.16436e-05
-0.000185244
-6.01414e-05
-0.000208509
-0.00010451
-0.000118569
-8.52231e-05
-0.000180959
-6.14663e-05
-0.000182709
-0.000188789
-0.000137056
-0.000146316
-0.000143675
-3.26873e-07
-9.80518e-05
-1.58274e-06
-0.000100695
-3.02066e-06
-0.000100274
-4.11415e-06
-9.98778e-05
-5.15016e-06
-9.99844e-05
-6.1614e-06
-9.99979e-05
-7.21086e-06
-9.97732e-05
-8.57941e-06
-0.000100103
-1.04481e-05
-0.000100421
-1.2873e-05
-0.000100646
-1.67529e-05
-0.000100704
-2.04101e-05
-0.00010284
-2.4659e-05
-0.000102864
-2.92471e-05
-0.000104126
-3.47184e-05
-0.000186109
-4.77952e-05
-0.000184504
-4.48602e-05
-0.000188179
-8.30257e-05
-0.000170343
-3.24858e-05
-0.000169109
-0.000106304
-0.000107141
-9.25038e-05
-0.000196509
-0.000109059
-0.000120501
-0.000118073
-0.000137302
-3.88104e-07
-9.76637e-05
-1.54329e-06
-9.95395e-05
-2.52452e-06
-9.92928e-05
-3.19602e-06
-9.92063e-05
-4.15396e-06
-9.90265e-05
-5.07017e-06
-9.90817e-05
-6.21547e-06
-9.86279e-05
-7.50505e-06
-9.88131e-05
-9.86806e-06
-9.80579e-05
-1.2106e-05
-9.84079e-05
-1.51829e-05
-9.76273e-05
-1.9308e-05
-9.87154e-05
-2.45367e-05
-9.7635e-05
-3.06579e-05
-9.80049e-05
-4.09788e-05
-0.000175788
-5.48975e-05
-0.000170585
-7.50423e-05
-0.000168035
-9.00266e-05
-0.000155359
-0.000108762
-0.000150373
-0.000130637
-8.52663e-05
-0.000158474
-0.000168672
-0.0001929
-8.60744e-05
-0.000130717
-0.000180256
-7.16558e-07
-9.69471e-05
-1.559e-06
-9.8697e-05
-2.34904e-06
-9.85028e-05
-3.03939e-06
-9.85159e-05
-3.8956e-06
-9.81703e-05
-4.80754e-06
-9.81698e-05
-5.92978e-06
-9.75057e-05
-7.21381e-06
-9.7529e-05
-9.01499e-06
-9.62567e-05
-1.13358e-05
-9.60871e-05
-1.42627e-05
-9.47003e-05
-1.75278e-05
-9.54503e-05
-2.16652e-05
-9.34977e-05
-2.53053e-05
-9.43647e-05
-3.37918e-05
-0.000167301
-4.79415e-05
-0.000156436
-6.60397e-05
-0.000149936
-7.85731e-05
-0.000142826
-9.44728e-05
-0.000134474
-9.62405e-05
-8.34986e-05
-0.000194864
-7.0049e-05
-0.000193694
-8.72444e-05
-5.28036e-05
-0.000271607
-5.62862e-07
-9.63843e-05
-9.99359e-07
-9.82605e-05
-1.48371e-06
-9.80184e-05
-2.07909e-06
-9.79205e-05
-2.72369e-06
-9.75256e-05
-3.45437e-06
-9.74391e-05
-4.33571e-06
-9.66243e-05
-5.2406e-06
-9.66241e-05
-6.53522e-06
-9.4962e-05
-8.63565e-06
-9.39866e-05
-1.07149e-05
-9.26211e-05
-1.41318e-05
-9.20333e-05
-1.89404e-05
-8.86891e-05
-2.39953e-05