/*--------------------------------*- C++ -*----------------------------------*\
| =========                 |                                                 |
| \\      /  F ield         | foam-extend: Open Source CFD                    |
|  \\    /   O peration     | Version:     4.1                                |
|   \\  /    A nd           | Web:         http://www.foam-extend.org         |
|    \\/     M anipulation  |                                                 |
\*---------------------------------------------------------------------------*/
FoamFile
{
    version     2.0;
    format      ascii;
    class       surfaceScalarField;
    location    "0.4";
    object      phi_0;
}
// * * * * * * * * * * * * * * * * * * * * * * * * * * * * * * * * * * * * * //

dimensions      [0 3 -1 0 0 0 0];

internalField   nonuniform List<scalar> 
4432
(
3.10491e-06
-3.10491e-06
5.54307e-06
-2.43816e-06
9.64497e-06
-4.1019e-06
1.25388e-05
-2.89378e-06
1.58456e-05
-3.30684e-06
1.84784e-05
-2.63283e-06
2.16108e-05
-3.13237e-06
2.42921e-05
-2.68133e-06
2.60634e-05
-1.77123e-06
2.6794e-05
-7.3063e-07
4.37346e-05
-1.69406e-05
4.52186e-05
-1.48396e-06
4.61947e-05
-9.7614e-07
4.61336e-05
6.11155e-08
4.53306e-05
8.02969e-07
4.43045e-05
1.0261e-06
4.28862e-05
1.41838e-06
4.07789e-05
2.10724e-06
3.79993e-05
2.77959e-06
3.24973e-05
5.50208e-06
2.47567e-05
7.7406e-06
1.44145e-05
1.03422e-05
1.44145e-05
3.12313e-06
-6.22804e-06
5.7217e-06
-5.03673e-06
9.75295e-06
-8.13316e-06
1.25117e-05
-5.65257e-06
1.59558e-05
-6.75091e-06
1.87576e-05
-5.43461e-06
2.20296e-05
-6.4044e-06
2.45666e-05
-5.21827e-06
2.66879e-05
-3.89259e-06
2.69427e-05
-9.85435e-07
4.06269e-05
-3.06248e-05
4.29096e-05
-3.76668e-06
4.42837e-05
-2.35025e-06
4.46814e-05
-3.36511e-07
4.44763e-05
1.00804e-06
4.3635e-05
1.86735e-06
4.14375e-05
3.61596e-06
3.94333e-05
4.1114e-06
3.75271e-05
4.68577e-06
3.21224e-05
1.09068e-05
2.50447e-05
1.48183e-05
1.31067e-05
2.22802e-05
2.75212e-05
3.01452e-06
-9.24256e-06
5.85956e-06
-7.88176e-06
9.60684e-06
-1.18804e-05
1.21781e-05
-8.22386e-06
1.60613e-05
-1.06341e-05
1.90817e-05
-8.45498e-06
2.19957e-05
-9.31845e-06
2.52992e-05
-8.52171e-06
2.56393e-05
-4.23269e-06
4.48795e-05
-2.02257e-05
3.90556e-05
-2.48009e-05
4.20864e-05
-6.79748e-06
4.34535e-05
-3.71737e-06
4.29919e-05
1.25152e-07
4.22408e-05
1.75908e-06
4.10057e-05
3.10247e-06
3.95008e-05
5.12084e-06
3.81437e-05
5.46853e-06
3.62779e-05
6.55157e-06
3.1624e-05
1.55607e-05
2.52443e-05
2.1198e-05
1.51428e-05
3.23816e-05
4.2664e-05
2.89777e-06
-1.21403e-05
6.00998e-06
-1.0994e-05
9.50835e-06
-1.53788e-05
1.22548e-05
-1.09703e-05
1.63884e-05
-1.47676e-05
1.92178e-05
-1.12845e-05
2.24885e-05
-1.25891e-05
2.29695e-05
-9.00276e-06
3.8364e-05
-1.96272e-05
3.73042e-05
-1.91659e-05
3.39784e-05
-2.14751e-05
3.42657e-05
-7.08482e-06
3.39595e-05
-3.41118e-06
3.38734e-05
2.11273e-07
3.3967e-05
1.66545e-06
3.26374e-05
4.43208e-06
3.14515e-05
6.30679e-06
3.04655e-05
6.45451e-06
2.96325e-05
7.38457e-06
2.64826e-05
1.87106e-05
2.28449e-05
2.48357e-05
1.41027e-05
4.11238e-05
5.67667e-05
2.67018e-06
-1.48105e-05
6.01907e-06
-1.43429e-05
9.58408e-06
-1.89438e-05
1.23994e-05
-1.37856e-05
1.59739e-05
-1.83422e-05
1.84742e-05
-1.37847e-05
2.21268e-05
-1.62416e-05
2.21004e-05
-8.97639e-06
3.41468e-05
-3.16736e-05
3.27268e-05
-1.77459e-05
3.08357e-05
-1.9584e-05
3.21274e-05
-8.37652e-06
3.20524e-05
-3.33615e-06
3.09127e-05
1.35095e-06
2.94492e-05
3.12902e-06
2.8248e-05
5.63323e-06
2.73359e-05
7.21891e-06
2.56638e-05
8.12666e-06
2.51143e-05
7.93405e-06
2.24964e-05
2.13284e-05
2.02334e-05
2.70987e-05
1.56846e-05
4.56727e-05
7.24513e-05
2.66807e-06
-1.74786e-05
6.27627e-06
-1.79511e-05
9.68988e-06
-2.23574e-05
1.21222e-05
-1.62179e-05
1.51857e-05
-2.14057e-05
1.86761e-05
-1.72752e-05
1.95017e-05
-1.70672e-05
3.2262e-05
-2.17367e-05
2.99942e-05
-2.94058e-05
3.12346e-05
-1.89862e-05
3.05975e-05
-1.8947e-05
3.1106e-05
-8.88498e-06
3.05522e-05
-2.78238e-06
2.91793e-05
2.72383e-06
2.8208e-05
4.1004e-06
2.68833e-05
6.95794e-06
2.57655e-05
8.33663e-06
2.4656e-05
9.2362e-06
2.42989e-05
8.29116e-06
2.07999e-05
2.48274e-05
1.89267e-05
2.8972e-05
1.46721e-05
4.99273e-05
8.71234e-05
2.82377e-06
-2.03024e-05
6.26181e-06
-2.13891e-05
9.02321e-06
-2.51188e-05
1.17081e-05
-1.89028e-05
1.5021e-05
-2.47185e-05
1.67293e-05
-1.89836e-05
1.70757e-05
-1.74136e-05
2.91573e-05
-3.38183e-05
2.89457e-05
-2.91942e-05
3.06341e-05
-2.06746e-05
3.09141e-05
-1.9227e-05
3.17261e-05
-9.69698e-06
3.11423e-05
-2.19851e-06
2.9617e-05
4.24905e-06
2.85344e-05
5.18304e-06
2.77123e-05
7.78002e-06
2.71596e-05
8.88935e-06
2.47856e-05
1.16102e-05
2.51077e-05
7.96913e-06
2.17049e-05
2.82302e-05
2.13877e-05
2.92892e-05
9.92239e-06
6.13925e-05
9.70458e-05
3.1219e-06
-2.34243e-05
6.36353e-06
-2.46307e-05
8.85224e-06
-2.76075e-05
1.13546e-05
-2.14052e-05
1.47432e-05
-2.81071e-05
1.50981e-05
-1.93384e-05
2.73861e-05
-2.97016e-05
2.79484e-05
-3.43806e-05
2.91699e-05
-3.04157e-05
3.19418e-05
-2.34465e-05
3.30586e-05
-2.03438e-05
3.33992e-05
-1.00375e-05
3.21856e-05
-9.84941e-07
3.0004e-05
6.43067e-06
2.96782e-05
5.5088e-06
2.98601e-05
7.59814e-06
2.9357e-05
9.39249e-06
2.86287e-05
1.23385e-05
2.74663e-05
9.13145e-06
2.41074e-05
3.15891e-05
2.38276e-05
2.95691e-05
9.67482e-06
7.55453e-05
0.000106721
2.83365e-05
-2.83365e-05
5.75919e-05
-2.92554e-05
9.64268e-05
-3.88349e-05
0.000129932
-3.35048e-05
0.000159224
-2.92919e-05
0.0001724
-1.31768e-05
0.000168437
3.9637e-06
0.000168596
-1.59759e-07
0.000165335
3.26179e-06
0.000124962
4.03723e-05
1.77397e-06
0.000123188
-0.000188695
0.000190469
-0.000254566
6.58707e-05
-0.000268852
1.42856e-05
-0.000322485
5.36333e-05
-0.000339103
1.66172e-05
-0.000314353
-2.475e-05
-0.000225477
-8.88763e-05
-0.000225477
1.57556e-05
-4.40921e-05
3.96531e-05
-5.31529e-05
6.59892e-05
-6.5171e-05
9.00985e-05
-5.76142e-05
0.000111206
-5.03992e-05
7.58154e-05
2.22136e-05
8.71055e-05
-7.32644e-06
8.98171e-05
-2.87134e-06
8.52649e-05
7.81403e-06
5.38347e-05
7.18025e-05
-8.90704e-05
0.000266093
-0.000241998
0.000343397
-0.000313741
0.000137613
-0.000325224
2.57692e-05
-0.000221242
-5.03495e-05
-0.000197239
-7.38576e-06
-0.000281917
5.99284e-05
-0.000203089
-0.000167705
-0.000428566
1.96515e-05
-6.37436e-05
8.53489e-05
-0.00011885
0.000104977
-8.47993e-05
0.000100212
-5.28488e-05
6.3835e-05
-1.40224e-05
0.000130324
-4.4276e-05
0.000140106
-1.71085e-05
0.000126263
1.09721e-05
6.67655e-05
6.73115e-05
-9.54022e-05
0.00023397
-0.000258088
0.000428779
-0.000272831
0.00035814
-0.000300577
0.000165359
-0.000281209
6.4015e-06
-0.000209977
-0.000121582
-0.000192546
-2.48168e-05
-0.000133302
6.84626e-07
-0.000117693
-0.000183314
-0.000546259
9.71158e-06
-7.34552e-05
8.0646e-05
-0.000189785
5.86907e-05
-6.2844e-05
6.53037e-05
-5.9462e-05
7.02765e-05
-1.89952e-05
0.000119164
-9.31631e-05
9.92076e-05
2.84735e-06
2.09142e-05
8.92654e-05
-0.000122894
0.00021112
-0.000241902
0.000352978
-0.000275329
0.000462206
-0.000283952
0.000366763
-0.000283738
0.000165145
-0.000262155
-1.51819e-05
-0.000270542
-0.000113194
-0.000257753
-3.76065e-05
-0.000183321
-7.3747e-05
-7.00599e-05
-0.000296574
-0.000616319
1.59446e-05
-8.93998e-05
1.22597e-05
-0.0001861
2.20716e-05
-7.26559e-05
4.48246e-05
-8.22151e-05
4.18088e-05
-1.59795e-05
2.03496e-05
-7.1704e-05
-2.92561e-05
5.24528e-05
-0.000125112
0.000185121
-0.000251677
0.000337685
-0.00018326
0.000284562
-0.00027961
0.000558555
-0.000273594
0.000360747
-0.000267789
0.00015934
-0.000244278
-3.86925e-05
-0.000225061
-0.000132412
-0.000124276
-0.000138392
-9.40823e-05
-0.000103941
-5.90905e-05
-0.000331566
-0.00067541
-1.66925e-06
-8.77306e-05
6.65156e-06
-0.000194421
8.80086e-07
-6.68845e-05
-1.05008e-05
-7.08343e-05
-1.80576e-05
-8.42293e-06
-8.33604e-05
-6.40132e-06
-0.000160837
0.000129929
-0.00021448
0.000238764
-0.000166952
0.000290156
-0.000275046
0.000392656
-0.000275014
0.000558524
-0.000227295
0.000313028
-0.000103827
3.58721e-05
-8.8494e-05
-5.40259e-05
-0.000135541
-8.53649e-05
-0.000113808
-0.000160124
-4.80986e-05
-0.00016965
-3.81343e-05
-0.00034153
-0.000713544
-7.03994e-06
-8.06907e-05
-3.73003e-06
-0.000197731
-1.91402e-05
-5.14745e-05
-5.60735e-05
-3.39011e-05
-5.16414e-05
-1.28552e-05
-0.000150084
9.20406e-05
-0.00021456
0.000194406
-0.000216762
0.000240966
-0.000164452
0.000237846
-0.000242078
0.000470281
-0.000222529
0.000538975
-6.52167e-05
0.000155716
-8.30294e-05
5.36848e-05
-7.98113e-05
-5.72441e-05
-4.3573e-05
-0.000121603
-5.8739e-05
-0.000144958
-1.68385e-05
-0.000211551
-2.31755e-07
-0.000358137
-0.000713776
-1.56001e-05
-6.50907e-05
-1.4072e-05
-0.000199259
-4.62728e-05
-1.92738e-05
-8.85494e-05
8.37539e-06
-0.000127678
2.62728e-05
-0.000162847
0.000127209
-0.000215174
0.000246734
-0.000123596
0.000149388
-0.000218758
0.000333008
-0.000201165
0.000452688
-9.34796e-05
0.00043129
1.13486e-05
5.08875e-05
-9.57581e-06
7.46092e-05
-1.87006e-05
-4.81194e-05
-4.36107e-06
-0.000135943
-2.34572e-06
-0.000146973
-2.59464e-07
-0.000213637
1.10639e-05
-0.00036946
-0.000702712
6.34528e-06
-2.97695e-05
1.23409e-05
-3.06264e-05
1.70338e-05
-3.23005e-05
2.38871e-05
-2.82585e-05
2.78078e-05
-3.20278e-05
4.83306e-05
-3.98613e-05
5.5671e-05
-3.7042e-05
6.03901e-05
-3.90997e-05
6.51847e-05
-3.52103e-05
7.15112e-05
-2.9773e-05
7.49021e-05
-2.37347e-05
7.69419e-05
-1.20773e-05
7.56197e-05
3.37236e-07
7.24406e-05
9.60981e-06
6.89297e-05
9.01965e-06
6.15968e-05
1.49311e-05
6.1422e-05
9.56722e-06
6.35352e-05
1.02253e-05
6.55673e-05
7.09935e-06
6.21632e-05
3.49931e-05
4.13005e-05
5.04318e-05
3.453e-05
8.23157e-05
5.22807e-05
8.89699e-05
6.0597e-06
-3.58292e-05
1.24468e-05
-3.70135e-05
1.73342e-05
-3.71878e-05
3.24608e-05
-4.33851e-05
3.9814e-05
-3.93809e-05
4.7211e-05
-4.72583e-05
5.39314e-05
-4.37624e-05
6.32756e-05
-4.84439e-05
7.39548e-05
-4.58895e-05
8.24921e-05
-3.83103e-05
8.75959e-05
-2.88385e-05
8.95958e-05
-1.40772e-05
8.78389e-05
2.09405e-06
8.06941e-05
1.67546e-05
7.30754e-05
1.66384e-05
7.40308e-05
1.39757e-05
6.80553e-05
1.55426e-05
6.29139e-05
1.53668e-05
4.37991e-05
2.62142e-05
4.90394e-05
2.97528e-05
5.07764e-05
4.86949e-05
0.000101968
3.11244e-05
3.75852e-05
0.000116663
9.8023e-06
-4.56315e-05
1.71725e-05
-4.43837e-05
2.63845e-05
-4.63999e-05
3.1716e-05
-4.87165e-05
3.8841e-05
-4.6506e-05
4.61385e-05
-5.45557e-05
5.65405e-05
-5.41644e-05
7.29216e-05
-6.4825e-05
8.54111e-05
-5.8379e-05
9.31216e-05
-4.60207e-05
9.68837e-05
-3.26006e-05
9.88603e-05
-1.60538e-05
9.11314e-05
9.82293e-06
8.02859e-05
2.76001e-05
7.55715e-05
2.13528e-05
7.18867e-05
1.76605e-05
6.90425e-05
1.83869e-05
7.0675e-05
1.37343e-05
8.28115e-05
1.40776e-05
9.28101e-05
1.97542e-05
0.000103789
3.77162e-05
9.74143e-05
3.74987e-05
2.99144e-05
0.000105085
1.35499e-05
-5.91814e-05
1.86296e-05
-4.94634e-05
2.59024e-05
-5.36727e-05
3.0037e-05
-5.28511e-05
3.95378e-05
-5.60068e-05
5.03327e-05
-6.53506e-05
5.98469e-05
-6.36787e-05
6.4957e-05
-6.99351e-05
6.94223e-05
-6.28443e-05
7.66481e-05
-5.32465e-05
8.12733e-05
-3.72257e-05
7.29135e-05
-7.69402e-06
6.11627e-05
2.15738e-05
6.08614e-05
2.79013e-05
6.17146e-05
2.04996e-05
5.89909e-05
2.03842e-05
6.07949e-05
1.65828e-05
7.17375e-05
2.79178e-06
8.95301e-05
-3.71506e-06
0.000101478
7.80665e-06
0.00010926
2.99336e-05
0.000112968
3.37908e-05
4.3537e-05
9.93457e-05
-4.14406e-06
-5.50374e-05
-5.6135e-06
-4.79939e-05
1.90183e-06
-6.11881e-05
1.31246e-05
-6.40739e-05
2.03509e-05
-6.32331e-05
1.77427e-05
-6.27424e-05
1.11196e-05
-5.70556e-05
-7.11111e-07
-5.81044e-05
-1.16502e-05
-5.19052e-05
-2.09901e-05
-4.39067e-05
-2.39992e-05
-3.42166e-05
-2.00488e-05
-1.16445e-05
1.49555e-06
2.94572e-08
2.23709e-05
7.02594e-06
3.6758e-05
6.11257e-06
4.20082e-05
1.5134e-05
3.17889e-05
2.68022e-05
1.86704e-05
1.59102e-05
4.35977e-05
-2.86424e-05
6.44292e-05
-1.30248e-05
0.000116416
-2.20532e-05
0.000111717
3.84898e-05
4.7209e-05
0.000108045
-7.94401e-06
-4.70934e-05
-9.17917e-06
-4.67588e-05
-1.05165e-06
-6.93156e-05
1.10856e-05
-7.62111e-05
1.63262e-05
-6.84738e-05
1.20163e-05
-5.84326e-05
3.41424e-06
-4.84535e-05
-4.94732e-06
-4.97428e-05
-1.26151e-05
-4.42375e-05
-1.828e-05
-3.82418e-05
-3.21477e-05
-2.03489e-05
-1.56887e-05
-2.81035e-05
9.40042e-06
-2.50596e-05
2.45705e-05
-8.14409e-06
3.88436e-05
-8.16054e-06
4.77569e-05
6.22066e-06
6.27568e-05
1.18023e-05
6.59172e-05
1.27498e-05
5.47925e-05
-1.75177e-05
6.39359e-05
-2.21682e-05
4.31484e-05
-1.26571e-06
5.65435e-05
2.50948e-05
6.6449e-06
9.71076e-05
-2.3895e-06
-4.47039e-05
-1.55953e-06
-4.75887e-05
4.29114e-06
-7.51663e-05
1.22305e-05
-8.41504e-05
1.40234e-05
-7.02667e-05
1.10327e-05
-5.54419e-05
5.99415e-06
-4.3415e-05
2.24351e-07
-4.3973e-05
-3.75649e-06
-4.02566e-05
-3.98769e-06
-3.80106e-05
-1.74431e-06
-2.25923e-05
4.78361e-06
-3.46314e-05
1.19437e-05
-3.22198e-05
1.69827e-05
-1.31831e-05
3.09831e-05
-2.21609e-05
4.07569e-05
-3.5532e-06
5.09085e-05
1.65082e-06
6.22454e-05
1.41294e-06
6.3312e-05
-1.85843e-05
7.3974e-05
-3.28302e-05
7.69834e-05
-4.27517e-06
9.15008e-05
1.05774e-05
1.31515e-05
8.49943e-05
2.04512e-06
-4.6749e-05
6.38048e-06
-5.19241e-05
1.32159e-05
-8.20017e-05
1.85086e-05
-8.94432e-05
1.73597e-05
-6.91178e-05
1.61701e-05
-5.42523e-05
1.38604e-05
-4.11052e-05
1.22065e-05
-4.23192e-05
9.06199e-06
-3.71121e-05
1.00159e-05
-3.89646e-05
6.49107e-06
-1.90675e-05
1.16881e-05
-3.98285e-05
4.6481e-06
-2.51797e-05
1.08045e-05
-1.93395e-05
2.3176e-05
-3.45324e-05
3.78191e-05
-1.81963e-05
4.98694e-05
-1.03995e-05
5.73713e-05
-6.08893e-06
5.09992e-05
-1.22122e-05
3.99559e-05
-2.17869e-05
5.23992e-05
-1.67185e-05
6.17133e-05
1.26328e-06
3.24791e-05
4.23856e-05
3.763e-06
-5.0512e-05
9.60886e-06
-5.777e-05
1.64162e-05
-8.8809e-05
2.13315e-05
-9.43585e-05
1.87967e-05
-6.6583e-05
1.74667e-05
-5.29223e-05
1.53557e-05
-3.89942e-05
1.42833e-05
-4.12468e-05
6.55366e-06
-2.93825e-05
6.72728e-06
-3.91382e-05
2.04048e-05
-3.2745e-05
2.15147e-05
-4.09384e-05
2.1454e-05
-2.5119e-05
2.42449e-05
-2.21303e-05
3.18884e-05
-4.21759e-05
4.50325e-05
-3.13404e-05
6.31779e-05
-2.85448e-05
6.65687e-05
-9.4797e-06
6.29301e-05
-8.57354e-06
6.54166e-05
-2.42734e-05
6.1102e-05
-1.24038e-05
6.28029e-05
-4.3765e-07
8.99479e-06
8.62873e-05
4.09279e-06
-5.46048e-05
9.57438e-06
-6.32516e-05
1.92321e-05
-9.84667e-05
2.43654e-05
-9.94918e-05
2.05917e-05
-6.28093e-05
2.08975e-05
-5.32281e-05
2.2517e-05
-4.06137e-05
2.03147e-05
-3.90444e-05
2.03356e-05
-2.94034e-05
1.44355e-05
-3.3238e-05
1.40838e-05
-3.23934e-05
1.16393e-05
-3.84938e-05
1.38401e-05
-2.73198e-05
3.06991e-05
-3.89894e-05
3.35928e-05
-4.50696e-05
2.90142e-05
-2.67618e-05
3.91939e-05
-3.87245e-05
3.96598e-05
-9.94553e-06
6.77462e-05
-3.66599e-05
7.02748e-05
-2.68021e-05
6.95573e-05
-1.16862e-05
6.63448e-05
2.77483e-06
9.2552e-06
6.60844e-05
3.8604e-06
-5.84652e-05
9.68469e-06
-6.90759e-05
2.04122e-05
-0.000109194
2.33618e-05
-0.000102441
1.94245e-05
-5.88721e-05
2.02587e-05
-5.40622e-05
2.23572e-05
-4.27122e-05
2.4729e-05
-4.14163e-05
2.52499e-05
-2.99242e-05
3.05158e-05
-3.8504e-05
2.91286e-05
-3.10061e-05
3.11871e-05
-4.05523e-05
3.11385e-05
-2.72712e-05
3.48531e-05
-4.2704e-05
2.51883e-05
-3.54048e-05
3.45688e-05
-3.61423e-05
3.80985e-05
-4.22541e-05
6.40572e-05
-3.59042e-05
7.01567e-05
-4.27594e-05
6.91353e-05
-2.57807e-05
6.01229e-05
-2.67371e-06
7.26102e-05
-9.71251e-06
-3.13612e-05
0.000113227
3.14193e-06
-6.16071e-05
5.64023e-06
-7.15742e-05
1.9558e-05
-0.000123112
2.06497e-05
-0.000103533
1.42514e-05
-5.24737e-05
1.23117e-05
-5.21226e-05
1.53101e-05
-4.57107e-05
2.79833e-05
-5.40895e-05
1.62945e-05
-1.82355e-05
3.73408e-05
-5.95503e-05
1.85975e-05
-1.22629e-05
3.31717e-05
-5.51265e-05
2.86297e-05
-2.27292e-05
4.78159e-05
-6.18902e-05
4.82794e-05
-3.58683e-05
5.93751e-05
-4.7238e-05
6.68696e-05
-4.97486e-05
6.92737e-05
-3.83084e-05
7.927e-05
-5.27556e-05
6.12651e-05
-7.77572e-06
6.34181e-05
-4.82672e-06
6.58575e-05
-1.21519e-05
-3.72037e-05
7.16999e-05
2.16241e-06
-6.37695e-05
3.90526e-06
-7.3317e-05
1.62163e-05
-0.000135423
1.73838e-05
-0.000104701
7.3539e-06
-4.24438e-05
9.1348e-06
-5.39035e-05
1.98206e-05
-5.63964e-05
2.80203e-05
-6.22892e-05
4.03699e-05
-3.05851e-05
2.18122e-05
-4.09925e-05
4.26083e-05
-3.30591e-05
4.8465e-05
-6.09831e-05
5.12104e-05
-2.54746e-05
5.14786e-05
-6.21583e-05
5.01038e-05
-3.44935e-05
4.88745e-05
-4.60087e-05
5.48152e-05
-5.56893e-05
8.5698e-05
-6.91912e-05
6.18489e-05
-2.89065e-05
0.000106668
-5.2595e-05
0.000105892
-4.05093e-06
0.000117004
-2.3263e-05
-5.54974e-06
8.53497e-05
2.93297e-06
-6.67025e-05
4.58336e-06
-7.49674e-05
1.27497e-05
-0.000143589
8.06805e-06
-0.000100019
4.64347e-06
-3.90192e-05
8.97145e-06
-5.82315e-05
1.89855e-05
-6.64104e-05
2.08144e-05
-6.41182e-05
3.25318e-05
-4.23025e-05
3.44062e-05
-4.2867e-05
3.75606e-05
-3.62134e-05
5.18629e-05
-7.52855e-05
5.31408e-05
-2.67525e-05
3.96469e-05
-4.86644e-05
4.79471e-05
-4.27938e-05
8.45064e-05
-8.25679e-05
8.93732e-05
-6.0556e-05
9.22138e-05
-7.20318e-05
8.13094e-05
-1.8002e-05
9.45859e-05
-6.58715e-05
0.00014286
-5.23255e-05
0.000153011
-3.34138e-05
-1.30177e-05
0.000160479
3.12343e-06
-6.98259e-05
6.35027e-06
-7.81943e-05
1.30638e-05
-0.000150303
1.01071e-05
-9.70623e-05
3.55056e-06
-3.24627e-05
1.18742e-05
-6.65551e-05
1.11643e-05
-6.57006e-05
1.27059e-05
-6.56597e-05
5.50413e-05
-8.46379e-05
5.06539e-05
-3.84795e-05
7.53102e-05
-6.08698e-05
4.55414e-05
-4.55166e-05
5.01801e-05
-3.13913e-05
4.72835e-05
-4.57678e-05
9.24848e-05
-8.79951e-05
5.88428e-05
-4.8926e-05
0.000102356
-0.000104069
6.06355e-05
-3.03113e-05
0.000115399
-7.27655e-05
9.07699e-05
-4.12423e-05
9.73746e-05
-5.89301e-05
0.000105694
-4.17336e-05
-1.65985e-05
0.000109275
1.62496e-06
-7.14509e-05
4.70264e-06
-8.1272e-05
6.14101e-06
-0.000151741
5.252e-06
-9.61733e-05
3.37925e-06
-3.05899e-05
1.15862e-05
-7.47621e-05
1.1537e-05
-6.56514e-05
2.38864e-05
-7.80091e-05
1.97106e-05
-8.04621e-05
5.71218e-05
-7.58908e-05
4.13012e-05
-4.50491e-05
3.94528e-05
-4.36682e-05
4.07965e-05
-3.2735e-05
7.04198e-05
-7.53911e-05
7.63038e-05
-9.3879e-05
6.18042e-05
-3.44263e-05
6.07851e-05
-0.00010305
6.66635e-05
-3.61897e-05
8.63379e-05
-9.24399e-05
0.000103373
-5.82777e-05
0.000111817
-6.73739e-05
0.000121518
-5.14349e-05
-2.20543e-05
0.000126974
-1.09721e-06
-7.03537e-05
2.39299e-06
-8.47622e-05
6.39548e-06
-0.000155744
1.45334e-06
-9.12311e-05
8.06699e-06
-3.72036e-05
9.43132e-06
-7.61264e-05
1.16505e-05
-6.78706e-05
1.94343e-05
-8.57929e-05
3.16297e-05
-9.26575e-05
5.8218e-05
-0.000102479
5.53969e-05
-4.2228e-05
5.4683e-05
-4.29543e-05
5.70948e-05
-3.51468e-05
6.99198e-05
-8.8216e-05
5.09832e-05
-7.49424e-05
9.20432e-05
-7.54863e-05
6.51211e-05
-7.61281e-05
7.55045e-05
-4.6573e-05
8.66088e-05
-0.000103544
0.000109937
-8.1606e-05
0.000132283
-8.972e-05
0.000134591
-5.37427e-05
-5.98233e-05
0.00017236
-9.48118e-07
-6.94056e-05
5.91708e-06
-9.16274e-05
2.73789e-06
-0.000152565
4.92698e-06
-9.34202e-05
1.54475e-06
-3.38214e-05
1.372e-05
-8.83017e-05
1.8146e-05
-7.22965e-05
1.86582e-05
-8.63051e-05
2.62558e-05
-0.000100255
3.9418e-05
-0.000115641
4.63449e-05
-4.9155e-05
5.41425e-05
-5.07518e-05
6.6283e-05
-4.72873e-05
7.8026e-05
-9.9959e-05
8.18721e-05
-7.87885e-05
8.21279e-05
-7.57421e-05
6.434e-05
-5.83402e-05
0.000118033
-0.000100266
0.000102482
-8.79934e-05
0.000128318
-0.000107441
0.000142918
-0.000104321
0.000150159
-6.09829e-05
-0.000106387
0.000196722
-8.1797e-06
-6.12259e-05
-1.57282e-05
-8.40789e-05
-3.08825e-07
-0.000167984
-1.57459e-05
-7.79832e-05
1.13723e-05
-6.09395e-05
1.55208e-06
-7.84815e-05
-8.5742e-06
-6.21702e-05
1.98673e-05
-0.000114747
2.27354e-05
-0.000103123
2.58523e-05
-0.000118758
4.0477e-05
-6.37797e-05
4.45846e-05
-5.48594e-05
5.96561e-05
-6.23587e-05
5.28887e-05
-9.31917e-05
9.50751e-05
-0.000120975
6.01745e-05
-4.08415e-05
0.000113415
-0.00011158
0.000123652
-0.000110504
0.000152208
-0.000116549
0.00014216
-9.73939e-05
0.000170561
-0.000132721
0.000263531
-0.000153953
-8.55289e-05
0.000242673
1.08467e-05
-7.20726e-05
2.70109e-05
-0.000100243
-2.12451e-05
-0.000119728
-1.14782e-05
-8.775e-05
6.37756e-06
-7.87953e-05
1.49398e-05
-8.70438e-05
3.86339e-05
-8.58643e-05
1.04577e-05
-8.65704e-05
2.8596e-05
-0.000121262
3.14658e-05
-0.000121628
3.17953e-05
-6.41093e-05
3.08537e-05
-5.39179e-05
9.79532e-05
-0.000129458
6.26298e-05
-5.78683e-05
3.66772e-05
-9.50223e-05
6.46693e-05
-6.88336e-05
9.70268e-05
-0.000143938
0.000115978
-0.000129455
0.000106506
-0.000107077
0.000135985
-0.000126872
0.00016121
-0.000157946
0.000180577
-0.00017332
-0.000196029
0.000291076
1.05062e-06
-7.31232e-05
3.59348e-06
-0.000102786
-8.21233e-07
-0.000115313
-1.10644e-06
-8.74648e-05
6.35807e-06
-8.62599e-05
9.22104e-06
-8.99067e-05
2.00274e-05
-9.66707e-05
1.70097e-05
-8.35527e-05
2.54473e-05
-0.000129699
4.45657e-05
-0.000140746
5.16818e-05
-7.12254e-05
7.29611e-05
-7.51972e-05
2.80043e-05
-8.45014e-05
4.80285e-05
-7.78924e-05
4.19241e-05
-8.89179e-05
5.47987e-05
-8.17082e-05
7.10933e-05
-0.000160232
8.11512e-05
-0.000139513
0.000104223
-0.000130149
0.00012977
-0.000152419
0.000160187
-0.000188363
0.000182317
-0.00019545
-0.000226789
0.000213078
2.39894e-06
-7.55221e-05
6.30063e-06
-0.000106688
-1.33086e-07
-0.00010888
5.01679e-06
-9.26147e-05
3.82986e-06
-8.50729e-05
1.14684e-05
-9.75452e-05
9.59401e-06
-9.47963e-05
5.31779e-05
-0.000127137
5.70859e-05
-0.000133607
1.08216e-05
-9.44818e-05
2.11639e-05
-8.15678e-05
3.28502e-05
-8.68834e-05
3.93116e-05
-9.09629e-05
6.21462e-05
-0.000100727
6.94364e-05
-9.62081e-05
8.55482e-05
-9.782e-05
7.52516e-05
-0.000149936
8.61416e-05
-0.000150403
0.000145724
-0.000189732
0.0001292
-0.000135894
0.000157266
-0.000216429
0.000197966
-0.000236151
-0.00031563
0.000286807
-6.69112e-06
-6.8831e-05
-4.72833e-06
-0.00010865
-7.0822e-06
-0.000106526
-1.27281e-05
-8.69688e-05
1.72765e-05
-0.000115078
9.69139e-06
-8.99601e-05
4.52053e-05
-0.00013031
2.63492e-05
-0.000108281
3.30161e-05
-0.000140274
2.07798e-05
-8.22456e-05
2.82573e-05
-8.90453e-05
2.53761e-05
-8.40022e-05
2.58336e-05
-9.14204e-05
4.02535e-05
-0.000115147
4.61584e-05
-0.000102113
6.37672e-05
-0.000115429
8.21424e-05
-0.000168311
0.000150613
-0.000218873
0.00010015
-0.000139269
0.000198511
-0.000234255
0.000246301
-0.00026422
0.000323148
-0.000312998
-0.000323293
0.000330811
1.58052e-05
-8.46362e-05
3.64291e-06
-9.64881e-05
-3.4295e-06
-9.94532e-05
1.87537e-05
-0.000109152
9.67413e-06
-0.000105998
3.98333e-05
-0.000120119
2.34362e-05
-0.000113913
2.59881e-05
-0.000110832
2.36276e-05
-0.000137914
1.28116e-05
-7.14296e-05
1.24739e-05
-8.87076e-05
1.47741e-05
-8.63024e-05
2.04392e-05
-9.70855e-05
1.60756e-05
-0.000110783
8.62037e-05
-0.000172241
7.18013e-05
-0.000101026
0.000109223
-0.000205733
0.000109479
-0.000219129
9.79015e-05
-0.000127692
0.000125619
-0.000261972
0.00015338
-0.000291981
0.000204654
-0.000364273
-0.000357142
0.000238503
-2.80574e-05
-5.65788e-05
3.90948e-06
-0.000128455
3.62661e-05
-0.00013181
2.52813e-05
-9.81673e-05
2.38515e-05
-0.000104568
2.07039e-05
-0.000116972
4.95319e-05
-0.000142741
2.01865e-05
-8.1487e-05
-1.93637e-05
-9.83636e-05
-4.48349e-06
-8.63097e-05
4.39646e-06
-9.75875e-05
1.38754e-05
-9.57813e-05
2.63406e-05
-0.000109551
2.71303e-05
-0.000111573
6.39265e-05
-0.000209037
5.95948e-05
-9.66947e-05
8.42294e-05
-0.000230367
9.7447e-05
-0.000232346
9.29651e-05
-0.00012321
0.000126862
-0.000295869
0.000160339
-0.000325458
0.000270995
-0.000474929
-0.000278009
0.000191863
-1.29027e-06
-5.52885e-05
2.67421e-06
-0.00013242
1.36279e-06
-0.000130498
3.47593e-06
-0.00010028
1.30821e-05
-0.000114174
2.65198e-05
-0.000130409
-1.71424e-05
-9.9079e-05
-7.79578e-06
-9.08336e-05
-6.28196e-06
-9.98774e-05
-8.17226e-07
-9.17745e-05
-2.85247e-07
-9.81195e-05
-3.16943e-06
-9.28971e-05
-7.47821e-06
-0.000105242
4.5372e-05
-0.000164423
4.0107e-05
-0.000203772
0.000118211
-0.000174799
4.09516e-05
-0.000153108
5.97879e-05
-0.000251183
9.28993e-05
-0.000156321
0.000171347
-0.000374317
0.00010004
-0.000254151
0.000154371
-0.00052926
-0.000245871
0.000122233
-4.01153e-06
-5.1277e-05
1.6092e-05
-0.000152523
3.15398e-05
-0.000145946
1.72912e-05
-8.60319e-05
5.35915e-07
-9.7419e-05
-2.55932e-05
-0.00010428
-1.78508e-05
-0.000106821
-9.11069e-06
-9.95738e-05
-8.88404e-06
-0.000100104
-3.04134e-06
-9.76172e-05
-6.9343e-07
-0.000100467
4.74388e-06
-9.83344e-05
3.39205e-06
-0.00010389
2.25697e-05
-0.000183601
1.83581e-05
-0.000199561
5.10434e-05
-0.000207484
4.04214e-05
-0.000142486
6.36939e-05
-0.000274455
8.7283e-05
-0.00017991
9.26622e-05
-0.000379696
5.96113e-05
-0.0002211
-9.67749e-07
-0.000468681
-0.000193313
-5.35261e-05
3.8531e-05
-8.9808e-05
-1.14158e-07
-0.000113878
-3.52593e-05
-0.000110801
-1.37988e-05
-0.000107492
-6.42691e-06
-0.000104791
-4.10871e-06
-0.000106598
-7.57557e-06
-0.000103354
-5.81047e-06
-0.000101339
-5.14179e-06
-0.000100773
-2.30735e-06
-0.000100452
-1.44905e-06
-0.000101326
2.78268e-06
-0.000102566
2.81783e-06
-0.000103925
1.38384e-05
-0.000194621
1.17768e-05
-0.000197499
2.93828e-05
-0.00022509
1.79293e-05
-0.000131032
3.97613e-05
-0.000296287
3.78785e-05
-0.000178027
4.30662e-05
-0.000384883
5.97092e-05
-0.000237743
-0.000104587
-0.000304385
-0.000195265
-0.000102635
6.0399e-06
-9.58479e-05
1.30718e-06
-0.000109145
-6.66394e-07
-0.000108828
-2.32879e-06
-0.00010583
-3.08901e-06
-0.000104031
-6.30687e-06
-0.000103381
-6.73241e-06
-0.000102929
-5.29233e-06
-0.000102779
-4.56354e-06
-0.000101502
-2.15366e-06
-0.000102862
-1.05063e-06
-0.000102429
1.38904e-06
-0.000105006
1.84897e-06
-0.000104385
4.68597e-06
-0.000197458
-1.30067e-06
-0.000191512
1.12935e-05
-0.000237684
5.4715e-05
-0.000174454
-3.78888e-05
-0.000203683
2.39218e-06
-0.000218308
-3.95941e-05
-0.000342897
-5.10962e-05
-0.000226241
-0.000112179
-0.000243302
-0.000187637
-0.000119807
2.60952e-06
-9.84574e-05
-1.03855e-06
-0.000105497
-4.52059e-06
-0.000105346
-5.12761e-06
-0.000105223
-5.91741e-06
-0.000103241
-5.43916e-06
-0.000103859
-5.44423e-06
-0.000102924
-4.6479e-06
-0.000103575
-4.20205e-06
-0.000101947
-2.59429e-06
-0.000104469
-2.13883e-06
-0.000102884
-1.22143e-07
-0.000107023
-7.14244e-07
-0.000103793
-6.47684e-06
-0.000191696
-1.04573e-05
-0.000187532
-1.79113e-05
-0.00023023
-5.31056e-06
-0.000187055
-1.0038e-05
-0.000198956
2.87837e-06
-0.000231225
-0.000125359
-0.00021466
-6.34138e-05
-0.000288186
-0.000130561
-0.000176155
-0.000185421
-0.000132777
6.26879e-07
-9.90843e-05
-4.58633e-07
-0.000104412
-1.35567e-06
-0.000104448
-2.35833e-06
-0.00010422
-3.36318e-06
-0.000102236
-3.89072e-06
-0.000103331
-4.0456e-06
-0.000102769
-3.78578e-06
-0.000103835
-1.93843e-06
-0.000103795
-1.23337e-07
-0.000106284
2.63659e-06
-0.000105644
1.03082e-05
-0.000114694
1.91956e-05
-0.000112681
-3.6915e-05
-0.000135585
-2.41289e-05
-0.000200318
-4.27607e-05
-0.000211598
-2.69882e-05
-0.000202827
1.36985e-05
-0.000239643
-3.72656e-05
-0.000180261
-6.02315e-05
-0.000191694
-0.000168048
-0.00018037
-9.4404e-05
-0.000249799
-0.000143262
-0.000136563
-5.02049e-08
-9.90341e-05
-1.05546e-06
-0.000103406
-2.10167e-06
-0.000103402
-3.77225e-06
-0.00010255
-3.77911e-06
-0.000102229
-4.73075e-06
-0.00010238
-5.2652e-06
-0.000102235
-6.04499e-06
-0.000103055
-5.91929e-06
-0.00010392
-7.21293e-06
-0.000104991
-5.46438e-06
-0.000107393
-9.60382e-06
-0.000110555
-9.70439e-06
-0.00011258
-2.53709e-05
-0.000119919
-2.90417e-05
-0.000196647
-3.59077e-05
-0.000204732
-5.32048e-05
-0.00018553
-6.57534e-05
-0.000227094
-8.28842e-05
-0.00016313
-0.000112819
-0.000161759
-0.000134305
-0.000158883
-0.000118737
-0.000265367
-0.000102991
-0.000159008
-2.26978e-07
-9.88071e-05
-9.88162e-07
-0.000102645
-2.25681e-06
-0.000102134
-3.43607e-06
-0.00010137
-4.12705e-06
-0.000101538
-5.08844e-06
-0.000101418
-6.07181e-06
-0.000101251
-7.22952e-06
-0.000101898
-8.43072e-06
-0.000102719
-9.93429e-06
-0.000103487
-1.23228e-05
-0.000105004
-1.59743e-05
-0.000106903
-2.10724e-05
-0.000107482
-3.18876e-05
-0.000109103
-3.62659e-05
-0.000192269
-4.26165e-05
-0.000198382
-4.26911e-05
-0.000185456
-6.04043e-05
-0.000209381
-0.000104978
-0.000118556
-8.5696e-05
-0.000181042
-6.21083e-05
-0.000182471
-0.000190271
-0.000137204
-0.000148992
-0.000144271
-4.2399e-07
-9.83831e-05
-1.5456e-06
-0.000101524
-3.04386e-06
-0.000100635
-4.13692e-06
-0.000100277
-5.2129e-06
-0.000100462
-6.22338e-06
-0.000100408
-7.27515e-06
-0.000100199
-8.64908e-06
-0.000100524
-1.05297e-05
-0.000100839
-1.29627e-05
-0.000101054
-1.68678e-05
-0.000101099
-2.05516e-05
-0.000103219
-2.48194e-05
-0.000103214
-2.94319e-05
-0.000104491
-3.48527e-05
-0.000186848
-4.79258e-05
-0.000185309
-4.4818e-05
-0.000188563
-8.31067e-05
-0.000171092
-3.25087e-05
-0.000169154
-0.000106539
-0.000107011
-9.28256e-05
-0.000196184
-0.000109568
-0.000120462
-0.000120421
-0.000138138
-3.8528e-07
-9.79979e-05
-1.64825e-06
-0.000100261
-2.57687e-06
-9.97068e-05
-3.22383e-06
-9.96304e-05
-4.21703e-06
-9.9469e-05
-5.12157e-06
-9.95033e-05
-6.26945e-06
-9.90515e-05
-7.56242e-06
-9.92307e-05
-9.9305e-06
-9.84705e-05
-1.21744e-05
-9.88103e-05
-1.52554e-05
-9.80181e-05
-1.93957e-05
-9.9079e-05
-2.46218e-05
-9.7988e-05
-3.07732e-05
-9.83394e-05
-4.10426e-05
-0.000176579
-5.49141e-05
-0.000171437
-7.47254e-05
-0.000168752
-8.97518e-05
-0.000156066
-0.000108164
-0.000150741
-0.000129815
-8.53612e-05
-0.000157534
-0.000168465
-0.000191679
-8.63169e-05
-0.000132247
-0.000179854
-6.21472e-07
-9.73764e-05
-1.65277e-06
-9.92293e-05
-2.39266e-06
-9.89669e-05
-3.06557e-06
-9.89575e-05
-3.92791e-06
-9.86067e-05
-4.83336e-06
-9.85979e-05
-5.95528e-06
-9.79296e-05
-7.2405e-06
-9.79455e-05
-9.04623e-06
-9.66648e-05
-1.13802e-05
-9.64764e-05
-1.43086e-05
-9.50896e-05
-1.75613e-05
-9.58263e-05
-2.1681e-05
-9.38683e-05
-2.53153e-05
-9.47052e-05
-3.37499e-05
-0.000168144
-4.78663e-05
-0.000157321
-6.5838e-05
-0.000150781
-7.83017e-05
-0.000143602
-9.39562e-05
-0.000135087
-9.56073e-05
-8.371e-05
-0.000193717
-7.03553e-05
-0.000192271
-8.77626e-05
-5.35057e-05
-0.000271012
-5.17347e-07
-9.6859e-05
-1.01377e-06
-9.87329e-05
-1.50424e-06
-9.84764e-05
-2.09309e-06
-9.83686e-05
-2.73339e-06
-9.79664e-05
-3.45873e-06
-9.78725e-05
-4.33594e-06
-9.70524e-05
-5.23695e-06
-9.70445e-05
-6.52922e-06
-9.53725e-05
-8.61719e-06
-9.43884e-05
-1.06936e-05
-9.30132e-05
-1.40944e-05
-9.24256e-05
-1.88938e-05
-8.90689e-05
-2.39305e-05