/*--------------------------------*- C++ -*----------------------------------*\
| =========                 |                                                 |
| \\      /  F ield         | foam-extend: Open Source CFD                    |
|  \\    /   O peration     | Version:     4.1                                |
|   \\  /    A nd           | Web:         http://www.foam-extend.org         |
|    \\/     M anipulation  |                                                 |
\*---------------------------------------------------------------------------*/
FoamFile
{
    version     2.0;
    format      ascii;
    class       volVectorField;
    location    "0.4";
    object      U;
}
// * * * * * * * * * * * * * * * * * * * * * * * * * * * * * * * * * * * * * //

dimensions      [0 1 -1 0 0 0 0];

internalField   nonuniform List<vector> 
2268
(
(0.0425138 -0.00589991 0)
(0.0519393 -0.00439101 0)
(0.11698 -0.00759177 0)
(0.175489 -0.00449739 0)
(0.207228 -0.00331542 0)
(0.273157 -0.00816635 0)
(0.289726 -0.00369844 0)
(0.365642 -0.00272342 0)
(0.368384 -0.00569838 0)
(0.423357 -0.035746 0)
(0.373133 -0.0381957 0)
(0.318339 0.00953917 0)
(0.36828 0.00363964 0)
(0.3552 0.00306102 0)
(0.353709 0.00504815 0)
(0.347101 0.00159965 0)
(0.335556 0.0114463 0)
(0.317615 0.00956837 0)
(0.300893 -0.0011944 0)
(0.274905 0.00700808 0)
(0.219602 0.0227606 0)
(0.155405 0.013338 0)
(0.0647678 0.0329423 0)
(0.0418628 -0.016428 0)
(0.0531431 -0.0131119 0)
(0.1212 -0.0219417 0)
(0.174596 -0.0163504 0)
(0.207252 -0.0204221 0)
(0.276235 -0.0106637 0)
(0.29489 -0.0189632 0)
(0.371222 -0.0164387 0)
(0.367086 -0.00667302 0)
(0.443766 0.0325992 0)
(0.350039 -0.0952291 0)
(0.30626 -0.0200041 0)
(0.350668 -0.0099029 0)
(0.340963 -0.00261977 0)
(0.342542 0.00529939 0)
(0.339375 0.00654067 0)
(0.328991 0.00883331 0)
(0.304018 0.0219637 0)
(0.296241 0.0214684 0)
(0.27485 0.0312943 0)
(0.217576 0.033576 0)
(0.161888 0.0607766 0)
(0.0396543 0.0717705 0)
(0.0387953 -0.028372 0)
(0.0528906 -0.0230591 0)
(0.125637 -0.0365317 0)
(0.1658 -0.024287 0)
(0.205834 -0.0281329 0)
(0.280871 -0.0285886 0)
(0.300366 -0.026687 0)
(0.366534 -0.0210206 0)
(0.39751 -0.0223775 0)
(0.379099 -0.0506012 0)
(0.314412 -0.117698 0)
(0.298136 -0.0357461 0)
(0.343367 -0.0142182 0)
(0.33003 -0.00143927 0)
(0.327556 0.00237359 0)
(0.321255 0.0202697 0)
(0.312002 0.0169065 0)
(0.295599 0.0345726 0)
(0.285508 0.0454735 0)
(0.26409 0.0487676 0)
(0.219351 0.0724886 0)
(0.164011 0.0979533 0)
(0.0669162 0.125651 0)
(0.0343627 -0.0380729 0)
(0.0537564 -0.0335727 0)
(0.129303 -0.0489949 0)
(0.159234 -0.0348897 0)
(0.214491 -0.0482141 0)
(0.282365 -0.0317629 0)
(0.302345 -0.0409146 0)
(0.376269 -0.0414474 0)
(0.313186 -0.0358239 0)
(0.289512 -0.0872412 0)
(0.281165 -0.0768396 0)
(0.255734 -0.0142054 0)
(0.270057 -0.0116926 0)
(0.255569 0.00249448 0)
(0.260747 0.0110425 0)
(0.254439 0.0226688 0)
(0.243274 0.0218579 0)
(0.235619 0.0443674 0)
(0.228712 0.0484334 0)
(0.220173 0.0620583 0)
(0.185053 0.0808048 0)
(0.16226 0.1344 0)
(0.0519416 0.180394 0)
(0.0276483 -0.0492326 0)
(0.053549 -0.0454293 0)
(0.129772 -0.0614997 0)
(0.161188 -0.0439039 0)
(0.216471 -0.0581047 0)
(0.267136 -0.0499699 0)
(0.294077 -0.048537 0)
(0.374985 -0.0212881 0)
(0.286347 -0.11234 0)
(0.255654 -0.0599893 0)
(0.249766 -0.0767199 0)
(0.233864 -0.0353217 0)
(0.255411 -0.0133906 0)
(0.237658 0.000181884 0)
(0.23274 0.0102041 0)
(0.2159 0.0111192 0)
(0.215646 0.0228505 0)
(0.198556 0.0474124 0)
(0.190031 0.0580449 0)
(0.187824 0.0730679 0)
(0.154414 0.0969998 0)
(0.152682 0.159034 0)
(0.085185 0.227154 0)
(0.0227351 -0.0571723 0)
(0.0584703 -0.0576455 0)
(0.132614 -0.0748656 0)
(0.161711 -0.0554387 0)
(0.207257 -0.0740956 0)
(0.252429 -0.0484027 0)
(0.312722 -0.0731887 0)
(0.274238 -0.0458709 0)
(0.233085 -0.114605 0)
(0.236556 -0.0695044 0)
(0.244151 -0.0685948 0)
(0.23074 -0.0268775 0)
(0.24309 -0.0101053 0)
(0.223938 0.0103403 0)
(0.219878 0.0147823 0)
(0.208083 0.0308443 0)
(0.201639 0.0293752 0)
(0.192013 0.0692879 0)
(0.187681 0.0534079 0)
(0.183303 0.0807237 0)
(0.13695 0.0989218 0)
(0.154656 0.171447 0)
(0.0667122 0.291404 0)
(0.0212331 -0.0685231 0)
(0.0647877 -0.0713244 0)
(0.125807 -0.0856436 0)
(0.147804 -0.06103 0)
(0.207384 -0.0802159 0)
(0.244398 -0.0791836 0)
(0.266138 -0.0441846 0)
(0.24283 -0.116095 0)
(0.220743 -0.106342 0)
(0.229632 -0.0680328 0)
(0.241905 -0.0674109 0)
(0.234717 -0.035397 0)
(0.247972 -0.00878757 0)
(0.226506 0.0098737 0)
(0.224794 0.0137982 0)
(0.211155 0.0186016 0)
(0.216445 0.0328673 0)
(0.194562 0.0590217 0)
(0.186396 0.0685936 0)
(0.191012 0.0980807 0)
(0.147853 0.113666 0)
(0.183702 0.192806 0)
(0.111247 0.331484 0)
(0.0267043 -0.0771392 0)
(0.0685598 -0.082123 0)
(0.124737 -0.0951813 0)
(0.142686 -0.0781122 0)
(0.199498 -0.100885 0)
(0.246088 -0.0541352 0)
(0.208547 -0.0906259 0)
(0.215728 -0.127038 0)
(0.21945 -0.111494 0)
(0.230155 -0.080493 0)
(0.254949 -0.0719347 0)
(0.249791 -0.0353789 0)
(0.257561 -0.00684478 0)
(0.230532 0.0225661 0)
(0.224968 0.0279959 0)
(0.227216 0.0444044 0)
(0.2318 0.0291477 0)
(0.220938 0.0293878 0)
(0.220447 0.0376751 0)
(0.199072 0.108064 0)
(0.178181 0.0982873 0)
(0.188244 0.256332 0)
(0.102052 0.374764 0)
(0.139511 -0.0555526 0)
(0.27948 -0.0752386 0)
(0.57161 -0.234911 0)
(0.854719 -0.191574 0)
(1.08567 -0.129618 0)
(1.33695 -0.127561 0)
(1.42544 -0.0555486 0)
(1.38576 -0.0985441 0)
(1.37845 -0.0943409 0)
(1.34287 -0.0129297 0)
(1.14718 0.161332 0)
(-1.03689 0.193503 0)
(-1.68178 0.315817 0)
(-2.11179 0.0414387 0)
(-2.59731 0.239334 0)
(-2.87154 0.0701367 0)
(-2.67213 -0.116644 0)
(-2.31699 -0.0565152 0)
(-0.963208 -0.418157 0)
(0.0399914 -0.135314 0)
(0.192519 -0.114128 0)
(0.420708 -0.26139 0)
(0.615216 -0.071532 0)
(0.763659 -0.0817739 0)
(0.934145 0.0386293 0)
(1.29696 0.0586232 0)
(1.3492 0.0988717 0)
(1.33339 0.111297 0)
(1.19011 0.220855 0)
(0.592618 0.552271 0)
(-1.9617 1.03759 0)
(-2.11299 0.526383 0)
(-2.50692 0.197079 0)
(-3.05461 0.0698579 0)
(-3.29814 -0.00629327 0)
(-2.49348 -0.0264255 0)
(-1.9318 -0.564389 0)
(-0.920308 -1.16904 0)
(-0.0199285 -0.147077 0)
(0.362742 -0.236267 0)
(0.913696 -0.208597 0)
(0.883986 -0.279112 0)
(0.824872 -0.227408 0)
(1.02612 0.0742549 0)
(1.09758 -0.0809968 0)
(1.18651 -0.112839 0)
(0.877825 -0.0158244 0)
(0.382669 0.326189 0)
(-1.44673 1.43879 0)
(-2.40321 1.65883 0)
(-2.28809 0.487897 0)
(-2.44667 0.0355352 0)
(-2.73359 -0.358845 0)
(-3.1296 0.00731131 0)
(-2.64356 0.349807 0)
(-1.38403 -0.732791 0)
(-0.272109 -1.83594 0)
(-0.015176 -0.2599 0)
(0.341892 -0.476458 0)
(0.82777 -0.304312 0)
(0.946808 -0.404077 0)
(1.05273 0.0299238 0)
(0.985866 -0.417314 0)
(1.05822 -0.160573 0)
(0.815966 0.127654 0)
(-0.306503 0.814885 0)
(-1.33901 1.01686 0)
(-2.35267 1.71407 0)
(-2.45963 2.01847 0)
(-2.44243 0.680007 0)
(-2.22246 0.028395 0)
(-2.28653 -0.411162 0)
(-2.28828 -0.189684 0)
(-1.77304 -0.316128 0)
(-1.14883 -0.936033 0)
(-0.186404 -2.23302 0)
(0.0454851 -0.195614 0)
(0.19128 -1.00642 0)
(0.19412 -0.192665 0)
(0.205102 -0.317522 0)
(0.608635 -0.165898 0)
(0.153833 -0.655956 0)
(0.237367 0.0957385 0)
(-0.383077 0.416439 0)
(-1.57941 1.26462 0)
(-2.32803 1.32189 0)
(-2.52242 1.87176 0)
(-2.35207 1.80103 0)
(-2.38852 0.636141 0)
(-2.03093 -0.132095 0)
(-1.94162 -0.45498 0)
(-1.78012 -0.311732 0)
(-1.79655 -0.226877 0)
(-1.04261 -1.12152 0)
(-0.0827022 -2.41997 0)
(-0.0796988 -0.473839 0)
(0.068479 -1.23448 0)
(0.0625541 -0.2819 0)
(-0.00437235 -0.247332 0)
(-0.060655 0.0111585 0)
(-0.443312 -0.177185 0)
(-0.793339 0.241859 0)
(-1.35472 0.725599 0)
(-2.01364 1.11324 0)
(-2.45579 1.60935 0)
(-2.44785 2.00513 0)
(-1.98613 1.14702 0)
(-1.75034 0.528891 0)
(-1.35488 -0.070512 0)
(-1.21121 -0.364903 0)
(-1.01093 -0.605872 0)
(-0.706954 -0.498265 0)
(-0.710135 -1.1682 0)
(0.272197 -2.73897 0)
(-0.0602168 -0.563358 0)
(-0.0436702 -1.24997 0)
(-0.0702193 -0.172457 0)
(-0.166474 -0.239891 0)
(-0.638495 -0.142045 0)
(-0.892781 0.0876462 0)
(-1.37688 0.519194 0)
(-1.70956 0.773891 0)
(-2.00813 0.907719 0)
(-2.30099 1.69981 0)
(-2.2006 2.00522 0)
(-1.41358 0.90716 0)
(-0.664928 -0.0199685 0)
(-0.676741 -0.21554 0)
(-0.578827 -0.299884 0)
(-0.713121 -0.463417 0)
(-0.1877 -0.658472 0)
(-0.359451 -1.18043 0)
(0.449693 -2.83999 0)
(-0.117393 -0.48138 0)
(-0.0945121 -1.34594 0)
(-0.18099 -0.18164 0)
(-0.47473 -0.102947 0)
(-0.854483 0.02853 0)
(-1.08757 0.422061 0)
(-1.5825 0.693743 0)
(-1.74417 0.801566 0)
(-1.86368 1.00406 0)
(-1.91284 1.71625 0)
(-1.67473 1.88564 0)
(-0.214384 0.480967 0)
(0.141906 0.483714 0)
(-0.309546 -0.160741 0)
(0.0623148 -0.489202 0)
(-0.103462 -0.503952 0)
(0.10352 -0.648841 0)
(-0.219549 -1.35722 0)
(0.587382 -2.48323 0)
(0.0315399 -0.0987923 0)
(0.059563 -0.101298 0)
(0.11519 -0.10964 0)
(0.129122 -0.0729447 0)
(0.210384 -0.105729 0)
(0.17815 -0.115606 0)
(0.181308 -0.135665 0)
(0.216258 -0.127357 0)
(0.220802 -0.107686 0)
(0.244012 -0.0872249 0)
(0.266423 -0.0707916 0)
(0.266787 -0.0333307 0)
(0.281962 0.00736796 0)
(0.257005 0.0263235 0)
(0.262662 0.0599503 0)
(0.22917 0.0638922 0)
(0.219 0.0587155 0)
(0.216717 0.0772713 0)
(0.250982 0.0326943 0)
(0.214774 0.125903 0)
(0.255573 0.139553 0)
(0.305205 0.307061 0)
(0.203625 0.429377 0)
(0.0382212 -0.115004 0)
(0.0486498 -0.118534 0)
(0.128491 -0.12472 0)
(0.115274 -0.13606 0)
(0.124599 -0.128109 0)
(0.162034 -0.171462 0)
(0.184532 -0.138196 0)
(0.205543 -0.154381 0)
(0.250609 -0.148032 0)
(0.280584 -0.127198 0)
(0.309208 -0.101454 0)
(0.316061 -0.0550211 0)
(0.320846 -0.00443395 0)
(0.304708 0.043786 0)
(0.270768 0.0685027 0)
(0.260659 0.0514661 0)
(0.275546 0.0683237 0)
(0.215772 0.0663575 0)
(0.249659 0.069662 0)
(0.354735 0.124223 0)
(0.352311 0.212978 0)
(0.359219 0.286948 0)
(0.383041 0.308489 0)
(0.0266422 -0.142868 0)
(0.0430341 -0.148259 0)
(0.0806739 -0.145424 0)
(0.108393 -0.177875 0)
(0.123765 -0.159602 0)
(0.154157 -0.172929 0)
(0.177711 -0.179027 0)
(0.225403 -0.196976 0)
(0.298074 -0.18354 0)
(0.321935 -0.149514 0)
(0.351249 -0.106656 0)
(0.343275 -0.0482833 0)
(0.358869 0.0191733 0)
(0.296626 0.0768496 0)
(0.28289 0.0561335 0)
(0.257249 0.0497275 0)
(0.256805 0.0494499 0)
(0.239906 0.0492935 0)
(0.277139 0.117872 0)
(0.316853 0.0933695 0)
(0.367709 0.145077 0)
(0.364977 0.158111 0)
(0.360036 0.2371 0)
(0.0535478 -0.186889 0)
(0.0450741 -0.17199 0)
(0.0904915 -0.191651 0)
(0.095617 -0.175638 0)
(0.122271 -0.174733 0)
(0.159704 -0.222504 0)
(0.206467 -0.212871 0)
(0.233847 -0.26944 0)
(0.239344 -0.242008 0)
(0.249142 -0.181244 0)
(0.285207 -0.123691 0)
(0.283789 -0.0601836 0)
(0.221585 0.0559613 0)
(0.210632 0.129346 0)
(0.225238 0.10152 0)
(0.215722 0.07782 0)
(0.208736 0.0817565 0)
(0.23072 0.0518162 0)
(0.281963 0.0810394 0)
(0.354649 0.0507488 0)
(0.383129 0.12378 0)
(0.419486 0.111921 0)
(0.397706 0.165992 0)
(0.00429729 -0.236535 0)
(-0.0358816 -0.185471 0)
(-0.00807773 -0.201888 0)
(0.0181943 -0.204332 0)
(0.0722001 -0.225641 0)
(0.0691767 -0.247818 0)
(0.0557557 -0.248164 0)
(0.0167238 -0.240272 0)
(-0.0291218 -0.204271 0)
(-0.0781399 -0.190878 0)
(-0.0939378 -0.135022 0)
(-0.086039 0.0137218 0)
(-0.0644572 0.114186 0)
(0.0663458 0.0817228 0)
(0.0887065 0.0487546 0)
(0.17196 0.0681732 0)
(0.130003 0.0429345 0)
(0.0929319 -0.0290805 0)
(0.155649 -0.131498 0)
(0.468296 0.000422051 0)
(0.440535 0.0849033 0)
(0.399425 0.131452 0)
(0.399548 0.149432 0)
(-0.00954872 -0.170155 0)
(-0.0486578 -0.164846 0)
(-0.0198997 -0.24265 0)
(0.0115007 -0.25645 0)
(0.063682 -0.236991 0)
(0.0519232 -0.213447 0)
(0.030803 -0.17281 0)
(-0.0118651 -0.180985 0)
(-0.0564374 -0.164128 0)
(-0.127722 -0.124344 0)
(-0.132483 -0.10579 0)
(-0.101634 -0.0871188 0)
(-0.01242 -0.1065 0)
(0.0770958 0.0195627 0)
(0.0964793 -0.00701656 0)
(0.1767 0.0414209 0)
(0.158034 0.151814 0)
(0.295965 0.158076 0)
(0.157656 -0.0696348 0)
(0.238855 -0.103485 0)
(0.206975 -0.242824 0)
(0.411321 0.132137 0)
(0.378818 0.17397 0)
(-0.00763731 -0.165888 0)
(-0.0102643 -0.170201 0)
(-0.00831006 -0.25574 0)
(0.0376202 -0.291819 0)
(0.0501307 -0.258016 0)
(0.0473783 -0.20602 0)
(0.0299051 -0.168269 0)
(0.0101395 -0.169191 0)
(-0.00977771 -0.145924 0)
(-0.0209212 -0.145999 0)
(-0.0345996 -0.0367436 0)
(0.00755278 -0.112128 0)
(0.0272423 -0.0672514 0)
(0.0536678 -0.0783066 0)
(0.0692678 -0.0589712 0)
(0.146542 -0.00750757 0)
(0.142563 0.0119756 0)
(0.228215 0.00355696 0)
(0.205576 -0.185118 0)
(0.296744 -0.204984 0)
(0.203121 0.203125 0)
(0.36953 0.225155 0)
(0.296225 -0.0673521 0)
(-0.00987307 -0.157893 0)
(0.0241793 -0.171597 0)
(0.0221454 -0.28582 0)
(0.0709077 -0.313797 0)
(0.0621084 -0.251062 0)
(0.0598754 -0.195217 0)
(0.0540798 -0.145132 0)
(0.0441309 -0.149193 0)
(0.0394384 -0.140989 0)
(0.0255012 -0.124897 0)
(0.0402189 -0.125257 0)
(0.0539796 -0.132034 0)
(0.0256648 -0.16489 0)
(0.0081182 -0.106759 0)
(0.0655007 -0.0989157 0)
(0.0993703 -0.0127756 0)
(0.165107 0.0150375 0)
(0.187945 0.0237036 0)
(0.225845 -0.0614701 0)
(0.136234 -0.056616 0)
(0.159966 -0.244018 0)
(0.204784 -0.0824132 0)
(0.232966 0.117653 0)
(-0.0128892 -0.177015 0)
(0.0382796 -0.201138 0)
(0.0312986 -0.302063 0)
(0.0831671 -0.32937 0)
(0.0708237 -0.243734 0)
(0.0612357 -0.193202 0)
(0.0635699 -0.145591 0)
(0.0453109 -0.153148 0)
(0.0575047 -0.117704 0)
(0.032331 -0.154 0)
(0.0653375 -0.140658 0)
(0.0768117 -0.149409 0)
(0.077136 -0.189313 0)
(0.0732637 -0.169114 0)
(0.101578 -0.144629 0)
(0.120582 -0.118977 0)
(0.199152 -0.0830281 0)
(0.246819 -0.0626938 0)
(0.235314 -0.0307844 0)
(0.220004 -0.0995777 0)
(0.277083 -0.0206164 0)
(0.532653 0.0434435 0)
(0.368821 0.0928242 0)
(-0.00496841 -0.184613 0)
(0.0328953 -0.213068 0)
(0.0362143 -0.336318 0)
(0.0988154 -0.350052 0)
(0.0761939 -0.234806 0)
(0.070515 -0.188395 0)
(0.0787397 -0.135222 0)
(0.0829126 -0.145502 0)
(0.0617834 -0.0933806 0)
(0.0848786 -0.124248 0)
(0.117694 -0.0950122 0)
(0.0820914 -0.141934 0)
(0.0831368 -0.168062 0)
(0.112791 -0.145996 0)
(0.10516 -0.165295 0)
(0.139412 -0.102837 0)
(0.263441 -0.126036 0)
(0.29557 4.90981e-05 0)
(0.255694 -0.091093 0)
(0.24018 -0.069056 0)
(0.25418 -0.0670128 0)
(0.241302 -0.0235908 0)
(0.215183 0.04978 0)
(-0.0026378 -0.207089 0)
(0.0278389 -0.244183 0)
(0.0457079 -0.370623 0)
(0.0964306 -0.36711 0)
(0.071683 -0.214178 0)
(0.0658715 -0.19785 0)
(0.07797 -0.156493 0)
(0.084275 -0.130188 0)
(0.0869497 -0.11553 0)
(0.097336 -0.110001 0)
(0.116962 -0.136131 0)
(0.0980944 -0.126332 0)
(0.121249 -0.221134 0)
(0.107468 -0.127505 0)
(0.146634 -0.150215 0)
(0.203942 -0.0864126 0)
(0.287358 -0.147355 0)
(0.238609 -0.148863 0)
(0.240791 -0.172294 0)
(0.254627 -0.158375 0)
(0.26353 -0.0150994 0)
(0.553685 0.0169788 0)
(0.461465 -0.00617127 0)
(-0.0106705 -0.215177 0)
(0.0328285 -0.253239 0)
(0.0479001 -0.41594 0)
(0.0921025 -0.375012 0)
(0.051899 -0.207689 0)
(0.0531331 -0.191237 0)
(0.118567 -0.149989 0)
(0.0972037 -0.168103 0)
(0.103216 -0.0946754 0)
(0.124751 -0.165351 0)
(0.149588 -0.0792117 0)
(0.100068 -0.170646 0)
(0.15741 -0.155507 0)
(0.216363 -0.194957 0)
(0.153916 -0.105989 0)
(0.185221 -0.18281 0)
(0.251386 -0.157104 0)
(0.238282 -0.0918155 0)
(0.259661 -0.143173 0)
(0.334991 -0.0045929 0)
(0.49515 -0.034179 0)
(0.417443 -0.0687288 0)
(0.48826 -0.202818 0)
(0.00897979 -0.227372 0)
(0.0222229 -0.260342 0)
(0.0328348 -0.471774 0)
(0.0824842 -0.386106 0)
(0.03973 -0.163424 0)
(0.0656187 -0.185869 0)
(0.0619782 -0.176922 0)
(0.0802248 -0.219097 0)
(0.12007 -0.164586 0)
(0.170862 -0.263483 0)
(0.134688 -0.101114 0)
(0.178516 -0.218107 0)
(0.170929 -0.17403 0)
(0.202905 -0.244444 0)
(0.166964 -0.159091 0)
(0.219052 -0.139468 0)
(0.445319 -0.220991 0)
(0.316913 -0.220534 0)
(0.343099 -0.248938 0)
(0.46751 -0.118653 0)
(0.357168 0.0257123 0)
(0.378007 -0.0373865 0)
(0.478438 -0.0501184 0)
(0.0131851 -0.229279 0)
(0.00988604 -0.264184 0)
(0.0204365 -0.504952 0)
(0.0766966 -0.368803 0)
(0.0245576 -0.139302 0)
(0.0469654 -0.197603 0)
(0.0674017 -0.232002 0)
(0.076155 -0.23489 0)
(0.0668006 -0.271867 0)
(0.176107 -0.313513 0)
(0.305288 -0.120427 0)
(0.229591 -0.223559 0)
(0.149801 -0.179142 0)
(0.23297 -0.212589 0)
(0.332894 -0.0739291 0)
(0.32742 -0.212146 0)
(0.32254 -0.155622 0)
(0.312003 -0.273295 0)
(0.410351 -0.117826 0)
(0.680845 -0.267259 0)
(0.616317 -0.100533 0)
(0.483676 -0.109625 0)
(0.589189 -0.0311019 0)
(0.0151517 -0.255815 0)
(0.0086092 -0.283443 0)
(0.0356709 -0.536031 0)
(0.0608916 -0.359104 0)
(0.00690649 -0.137476 0)
(0.0472554 -0.217833 0)
(0.0318916 -0.246839 0)
(0.0596323 -0.223939 0)
(0.106477 -0.32694 0)
(0.310249 -0.297434 0)
(0.35774 -0.421186 0)
(0.231027 -0.329065 0)
(0.0866311 -0.204442 0)
(0.298305 -0.121804 0)
(0.324292 -0.252281 0)
(0.379355 -0.390506 0)
(0.408426 -0.338165 0)
(0.381088 -0.236015 0)
(0.409716 -0.159906 0)
(0.486921 -0.179317 0)
(0.709936 -0.24127 0)
(0.691192 -0.135166 0)
(0.765691 -0.0544449 0)
(0.00841682 -0.244498 0)
(0.00457107 -0.281456 0)
(0.0285297 -0.553574 0)
(0.0576584 -0.349372 0)
(0.0115693 -0.0924186 0)
(0.0389739 -0.254371 0)
(0.0419656 -0.229012 0)
(0.0411296 -0.252825 0)
(0.130026 -0.28317 0)
(0.153577 -0.234308 0)
(0.264176 -0.384505 0)
(0.298701 -0.320311 0)
(0.275904 -0.23719 0)
(0.282491 -0.234926 0)
(0.238809 -0.377891 0)
(0.355648 -0.276636 0)
(0.460257 -0.417505 0)
(0.412181 -0.204621 0)
(0.519397 -0.334093 0)
(0.694435 -0.144773 0)
(0.744065 -0.180671 0)
(0.849369 -0.14643 0)
(0.843107 -0.0396585 0)
(-0.00815568 -0.294699 0)
(0.0001007 -0.334274 0)
(0.0174952 -0.582767 0)
(0.0262237 -0.375402 0)
(-0.00319673 -0.125576 0)
(0.0545702 -0.304462 0)
(0.0171111 -0.257264 0)
(0.0673858 -0.313479 0)
(0.209585 -0.303064 0)
(0.230577 -0.331441 0)
(0.199835 -0.274536 0)
(0.19894 -0.289804 0)
(0.204199 -0.226665 0)
(0.204746 -0.299234 0)
(0.330167 -0.304961 0)
(0.347621 -0.229958 0)
(0.363832 -0.331265 0)
(0.523906 -0.30486 0)
(0.53658 -0.386199 0)
(0.682031 -0.255506 0)
(0.866232 -0.283074 0)
(1.00632 -0.218835 0)
(0.824871 -0.109731 0)
(-0.0215729 -0.182361 0)
(0.0176211 -0.249398 0)
(0.0138387 -0.583528 0)
(0.0353436 -0.255642 0)
(-0.0158383 -0.13238 0)
(0.0465922 -0.214391 0)
(0.0416242 -0.223691 0)
(0.0934694 -0.313589 0)
(0.173001 -0.366917 0)
(0.187444 -0.419039 0)
(0.120667 -0.301805 0)
(0.202057 -0.317096 0)
(0.201659 -0.263484 0)
(0.272507 -0.355763 0)
(0.314267 -0.248428 0)
(0.275644 -0.315899 0)
(0.389726 -0.203649 0)
(0.423936 -0.346451 0)
(0.525456 -0.339484 0)
(0.825184 -0.372243 0)
(0.987223 -0.346209 0)
(1.05241 -0.114472 0)
(0.936591 -0.309518 0)
(-0.036018 -0.34994 0)
(-0.0915845 -0.467396 0)
(0.00650652 -0.527748 0)
(-0.0333002 -0.464354 0)
(-0.058437 -0.349197 0)
(0.124435 -0.469061 0)
(-0.0976628 -0.319538 0)
(0.0444345 -0.301579 0)
(0.0925305 -0.351353 0)
(0.221536 -0.438895 0)
(0.136301 -0.41506 0)
(0.168843 -0.407572 0)
(0.143349 -0.417704 0)
(0.326804 -0.35545 0)
(0.382724 -0.321558 0)
(0.35707 -0.220228 0)
(0.440173 -0.274294 0)
(0.42383 -0.374053 0)
(0.481595 -0.385436 0)
(0.710727 -0.369611 0)
(1.19481 -0.43496 0)
(1.13523 -0.464953 0)
(0.891758 -0.409761 0)
(-0.0308026 -0.505182 0)
(0.183089 -0.703465 0)
(0.000843668 -0.779197 0)
(-0.142419 -0.623776 0)
(-0.0224908 -0.528736 0)
(0.0643291 -0.624295 0)
(0.153875 -0.560662 0)
(0.111213 -0.557994 0)
(0.0494555 -0.40492 0)
(0.151778 -0.443917 0)
(0.0819145 -0.461133 0)
(0.156335 -0.342531 0)
(0.277225 -0.433153 0)
(0.447105 -0.343315 0)
(0.381109 -0.600944 0)
(0.154506 -0.384267 0)
(0.331105 -0.51695 0)
(0.380795 -0.446867 0)
(0.543272 -0.443867 0)
(0.893063 -0.387723 0)
(1.04119 -0.503619 0)
(1.21217 -0.629594 0)
(1.27301 -0.603595 0)
(-0.0494218 -0.517732 0)
(0.0652981 -0.715016 0)
(-0.0148017 -0.869955 0)
(0.00321309 -0.614073 0)
(-0.00948014 -0.575021 0)
(0.0953244 -0.605635 0)
(0.0410019 -0.648819 0)
(0.0879642 -0.668338 0)
(0.167191 -0.482565 0)
(0.186813 -0.447803 0)
(0.140092 -0.452759 0)
(0.238737 -0.440249 0)
(0.286211 -0.532357 0)
(0.11839 -0.464586 0)
(0.239768 -0.660517 0)
(0.33753 -0.560119 0)
(0.432167 -0.592675 0)
(0.548825 -0.529218 0)
(0.628647 -0.350372 0)
(0.779336 -0.560968 0)
(1.0684 -0.630976 0)
(1.16993 -0.664614 0)
(1.42856 -0.735781 0)
(-0.0485156 -0.506766 0)
(0.0647496 -0.746631 0)
(-0.0214778 -0.777857 0)
(0.0241804 -0.618744 0)
(-0.0002646 -0.682819 0)
(0.0676541 -0.672608 0)
(-0.00396272 -0.751902 0)
(0.155985 -0.503493 0)
(0.23003 -0.477749 0)
(0.168686 -0.62625 0)
(0.00349466 -0.540344 0)
(0.14035 -0.619729 0)
(0.326767 -0.651534 0)
(0.224958 -0.636911 0)
(0.243324 -0.609136 0)
(0.257445 -0.588404 0)
(0.412826 -0.582283 0)
(0.632671 -0.455505 0)
(0.535037 -0.601668 0)
(0.722041 -0.498217 0)
(0.958255 -0.719568 0)
(1.27659 -0.804265 0)
(1.33891 -1.05084 0)
(-0.0769852 -0.584324 0)
(0.0258903 -0.765062 0)
(-0.0511523 -0.758998 0)
(-0.0689333 -0.718041 0)
(0.00652409 -0.479997 0)
(0.0862481 -0.730506 0)
(0.0739781 -0.552117 0)
(0.243267 -0.440237 0)
(0.111592 -0.535886 0)
(0.15119 -0.678701 0)
(0.117997 -0.632242 0)
(0.110229 -0.6123 0)
(0.243517 -0.647404 0)
(0.11137 -0.794663 0)
(0.220708 -0.756249 0)
(0.357606 -0.812157 0)
(0.582197 -0.551176 0)
(0.500136 -0.732253 0)
(0.636642 -0.891601 0)
(0.738829 -0.795404 0)
(0.824054 -0.902467 0)
(1.05616 -0.98725 0)
(1.39049 -1.23737 0)
(-0.0157184 -0.367066 0)
(0.116315 -0.780658 0)
(-0.09393 -0.777319 0)
(0.0820643 -0.461539 0)
(0.0381047 -0.382614 0)
(0.107158 -0.497073 0)
(0.178205 -0.424614 0)
(0.148095 -0.340777 0)
(0.0583012 -0.460126 0)
(0.105498 -0.471243 0)
(0.0744663 -0.610877 0)
(0.10797 -0.570505 0)
(0.0963864 -0.636115 0)
(0.0502403 -0.781453 0)
(0.19602 -0.609056 0)
(0.428995 -0.756891 0)
(0.56634 -0.700642 0)
(0.298143 -0.859673 0)
(0.563794 -0.972166 0)
(0.758139 -0.937044 0)
(1.00893 -1.08761 0)
(1.23019 -1.19452 0)
(1.52597 -1.23579 0)
(-0.164632 -0.250438 0)
(-0.0344455 -0.535099 0)
(0.0936856 -0.567663 0)
(0.156531 -0.382391 0)
(0.0419918 -0.417662 0)
(0.134424 -0.418971 0)
(0.166447 -0.412452 0)
(0.182162 -0.502078 0)
(-0.0400861 -0.618504 0)
(-0.0866281 -0.558511 0)
(0.0182634 -0.668158 0)
(0.0499219 -0.669075 0)
(0.0494336 -0.759789 0)
(0.144703 -0.825813 0)
(0.217021 -0.744975 0)
(0.314698 -0.683095 0)
(0.469229 -0.774302 0)
(0.202232 -0.829037 0)
(0.582299 -0.79137 0)
(0.683457 -0.941005 0)
(1.11431 -1.11937 0)
(1.01001 -1.62977 0)
(0.971151 -1.82031 0)
(-0.0683688 -0.165207 0)
(0.0473811 -0.449629 0)
(-0.00817784 -0.454579 0)
(0.027964 -0.313526 0)
(0.0263746 -0.309373 0)
(0.162398 -0.405356 0)
(0.00383639 -0.650139 0)
(-0.107158 -0.627692 0)
(-0.0113654 -0.731921 0)
(-0.0268563 -0.649897 0)
(0.0125017 -0.698083 0)
(-0.00850935 -0.66652 0)
(-0.045605 -0.766497 0)
(0.0165405 -0.660575 0)
(0.280522 -0.791165 0)
(0.329169 -0.648057 0)
(0.478464 -0.986151 0)
(0.150174 -0.948146 0)
(0.699235 -0.95699 0)
(0.528533 -1.33764 0)
(0.808789 -1.64032 0)
(0.591252 -2.00892 0)
(0.563938 -1.97253 0)
(-0.0918664 -0.209679 0)
(0.0723349 -0.464819 0)
(0.0543725 -0.480146 0)
(0.159312 -0.457995 0)
(0.0936914 -0.589749 0)
(-0.0914907 -0.635598 0)
(-0.0890544 -0.745685 0)
(-0.0405023 -0.676049 0)
(-0.0259384 -0.687811 0)
(-0.0375368 -0.668878 0)
(0.0143715 -0.693831 0)
(-0.016511 -0.661242 0)
(0.0727727 -0.726842 0)
(-0.0178212 -0.629092 0)
(0.263144 -0.727283 0)
(-0.00365971 -0.677649 0)
(0.388989 -1.07746 0)
(0.167306 -1.00239 0)
(0.348656 -1.21475 0)
(0.282642 -1.43576 0)
(0.545298 -1.67849 0)
(0.261324 -1.81945 0)
(-0.28296 -1.37657 0)
(0.148127 -0.545122 0)
(0.121265 -0.719085 0)
(-0.120832 -0.684763 0)
(-0.132823 -0.747673 0)
(-0.0599558 -0.754189 0)
(-0.032298 -0.791313 0)
(-0.0245127 -0.745821 0)
(-0.0310784 -0.718724 0)
(-0.00942691 -0.714889 0)
(-0.0291785 -0.715339 0)
(0.014613 -0.716904 0)
(-0.0270782 -0.724082 0)
(0.0688311 -0.743739 0)
(-0.024657 -0.743947 0)
(0.238685 -0.718874 0)
(-0.0707039 -0.850281 0)
(0.299728 -0.980843 0)
(-0.0221807 -0.985195 0)
(0.29254 -1.35073 0)
(0.244116 -1.41228 0)
(0.4117 -1.54075 0)
(-0.0312102 -1.95337 0)
(-0.701038 -1.33436 0)
(0.0252585 -0.692426 0)
(0.0181179 -0.826361 0)
(0.00223921 -0.820201 0)
(-0.012875 -0.756833 0)
(-0.0192663 -0.72825 0)
(-0.0231668 -0.719345 0)
(-0.0220946 -0.717348 0)
(-0.0275207 -0.714966 0)
(-0.00847801 -0.713517 0)
(-0.027432 -0.724076 0)
(0.0152604 -0.716016 0)
(-0.031366 -0.73518 0)
(0.0540467 -0.744297 0)
(-0.0372028 -0.75347 0)
(0.120107 -0.694966 0)
(-0.170274 -0.889641 0)
(0.386983 -0.760404 0)
(-0.116194 -1.31285 0)
(-0.0288247 -0.963394 0)
(-0.00348633 -1.32716 0)
(-0.264619 -1.76815 0)
(-0.0904084 -2.05835 0)
(-0.72487 -1.28288 0)
(0.0128039 -0.673793 0)
(0.00535504 -0.72909 0)
(-0.0191356 -0.728954 0)
(-0.0442734 -0.738374 0)
(-0.02589 -0.73462 0)
(-0.0188816 -0.733887 0)
(-0.0191074 -0.728491 0)
(-0.0221115 -0.731218 0)
(-0.00825563 -0.725984 0)
(-0.0251949 -0.743105 0)
(0.00917248 -0.723454 0)
(-0.0399274 -0.734173 0)
(0.0370099 -0.718952 0)
(-0.0311451 -0.671355 0)
(-0.0671324 -0.686832 0)
(-0.0974812 -0.912903 0)
(0.0172908 -0.618932 0)
(-0.149669 -1.5393 0)
(0.164814 -0.682997 0)
(-0.243294 -1.39418 0)
(-0.581617 -1.25093 0)
(-0.276723 -1.318 0)
(-0.729153 -1.32922 0)
(0.00380211 -0.706607 0)
(0.000658185 -0.748357 0)
(-0.00312333 -0.747136 0)
(-0.0173763 -0.743897 0)
(-0.0123448 -0.720649 0)
(-0.0135541 -0.730053 0)
(-0.0136127 -0.723275 0)
(-0.016728 -0.73083 0)
(-0.00838673 -0.729534 0)
(-0.0209134 -0.750593 0)
(0.0235754 -0.730023 0)
(-0.00901615 -0.790197 0)
(0.170074 -0.757594 0)
(-0.0576759 -0.87174 0)
(-0.181475 -0.746172 0)
(-0.160845 -0.814489 0)
(-0.169217 -0.784436 0)
(0.014058 -1.0657 0)
(0.0468655 -1.18795 0)
(-0.275686 -1.48523 0)
(-0.580157 -1.18435 0)
(-0.62517 -1.09586 0)
(-0.74039 -1.18735 0)
(0.0016951 -0.694321 0)
(-0.00252711 -0.726759 0)
(-0.0123675 -0.727944 0)
(-0.0169753 -0.727633 0)
(-0.0102598 -0.72305 0)
(-0.0174122 -0.7319 0)
(-0.0158463 -0.730809 0)
(-0.0221338 -0.738106 0)
(-0.0205927 -0.742563 0)
(-0.0214162 -0.755373 0)
(-0.0310305 -0.758598 0)
(-0.0418444 -0.809942 0)
(-0.0317937 -0.826599 0)
(-0.0954326 -0.94093 0)
(-0.0939549 -0.76403 0)
(-0.127561 -0.759852 0)
(-0.121898 -0.730876 0)
(-0.273392 -0.858578 0)
(-0.245828 -1.30705 0)
(-0.371707 -1.30192 0)
(-0.416134 -1.28689 0)
(-0.602801 -0.982109 0)
(-1.06652 -0.852295 0)
(0.000776444 -0.700428 0)
(-0.00223024 -0.72831 0)
(-0.00522505 -0.728891 0)
(-0.0117989 -0.725674 0)
(-0.0121632 -0.724646 0)
(-0.0181916 -0.729339 0)
(-0.0170363 -0.728269 0)
(-0.0264731 -0.733282 0)
(-0.0242192 -0.73026 0)
(-0.0376776 -0.744192 0)
(-0.0319302 -0.759817 0)
(-0.0583024 -0.760751 0)
(-0.0529601 -0.771713 0)
(-0.102871 -0.762801 0)
(-0.126058 -0.71042 0)
(-0.131066 -0.734931 0)
(-0.18781 -0.678654 0)
(-0.392865 -0.868428 0)
(-0.457551 -0.946474 0)
(-0.29094 -0.833171 0)
(-0.360429 -0.834691 0)
(-0.513882 -1.01228 0)
(-0.929692 -0.585566 0)
(0.00066768 -0.694427 0)
(-0.00337894 -0.719355 0)
(-0.007827 -0.720249 0)
(-0.013986 -0.72199 0)
(-0.0151171 -0.721274 0)
(-0.0218889 -0.72358 0)
(-0.0219909 -0.722996 0)
(-0.0293067 -0.726819 0)
(-0.0324027 -0.728176 0)
(-0.0421297 -0.735169 0)
(-0.0508554 -0.7364 0)
(-0.0683661 -0.759492 0)
(-0.0785515 -0.762109 0)
(-0.101088 -0.768665 0)
(-0.112497 -0.688987 0)
(-0.127732 -0.697485 0)
(-0.248296 -0.712409 0)
(-0.36391 -0.665531 0)
(-0.241189 -0.703585 0)
(-0.229882 -0.696039 0)
(-0.589252 -0.746526 0)
(-0.653612 -0.930706 0)
(-0.887331 -0.486812 0)
(0.00052966 -0.695398 0)
(-0.00376233 -0.718988 0)
(-0.00712038 -0.718949 0)
(-0.0106276 -0.716617 0)
(-0.0119107 -0.716281 0)
(-0.0178162 -0.715122 0)
(-0.0180209 -0.712944 0)
(-0.0266321 -0.713897 0)
(-0.0265631 -0.71073 0)
(-0.0445155 -0.711393 0)
(-0.0418032 -0.711201 0)
(-0.0677058 -0.715262 0)
(-0.0702564 -0.711696 0)
(-0.107648 -0.712645 0)
(-0.112229 -0.65073 0)
(-0.181246 -0.648973 0)
(-0.224157 -0.662703 0)
(-0.319406 -0.584871 0)
(-0.341479 -0.600225 0)
(-0.461991 -0.70551 0)
(-0.594897 -0.757143 0)
(-0.556339 -0.752715 0)
(-0.942514 -0.4508 0)
(-0.000656692 -0.695291 0)
(-0.00445284 -0.713518 0)
(-0.00689565 -0.711588 0)
(-0.00978046 -0.712625 0)
(-0.0117753 -0.710188 0)
(-0.0161434 -0.711185 0)
(-0.0179713 -0.707077 0)
(-0.0246185 -0.707875 0)
(-0.0267131 -0.700407 0)
(-0.0380059 -0.701823 0)
(-0.0427917 -0.691776 0)
(-0.0604976 -0.702686 0)
(-0.0645684 -0.689896 0)
(-0.0928192 -0.692041 0)
(-0.0891941 -0.614558 0)
(-0.15037 -0.582845 0)
(-0.19911 -0.562544 0)
(-0.288085 -0.552566 0)
(-0.269797 -0.527982 0)
(-0.528076 -0.547994 0)
(-0.768617 -0.550056 0)
(-0.712897 -0.438657 0)
(-0.663768 -0.436876 0)
(-0.000640761 -0.689212 0)
(-0.00322023 -0.70352 0)
(-0.00425205 -0.702065 0)
(-0.00670289 -0.701174 0)
(-0.00826208 -0.698528 0)
(-0.0117592 -0.697553 0)
(-0.0130541 -0.69189 0)
(-0.0190555 -0.691262 0)
(-0.018411 -0.680224 0)
(-0.0301016 -0.680873 0)
(-0.0316343 -0.664007 0)
(-0.0479231 -0.665125 0)
(-0.0525523 -0.640424 0)
(-0.0917196 -0.665326 0)
(-0.0780084 -0.586904 0)
(-0.156665 -0.545083 0)
(-0.168664 -0.522982 0)
(-0.259006 -0.479114 0)
(-0.33456 -0.498201 0)
(-0.415029 -0.575205 0)
(-0.474127 -0.453258 0)
(-0.517099 -0.270255 0)
(-0.554655 -0.386984 0)
(-0.000130964 -0.680386 0)
(-0.00254406 -0.693235 0)
(-0.00458932 -0.691522 0)
(-0.00689772 -0.690884 0)
(-0.00895521 -0.687902 0)
(-0.0116794 -0.687287 0)
(-0.0137917 -0.681278 0)
(-0.0174221 -0.681164 0)
(-0.018409 -0.668458 0)
(-0.0234196 -0.669365 0)
(-0.0255816 -0.651728 0)
(-0.0273702 -0.647851 0)
(-0.0500079 -0.628051 0)
(-0.0840826 -0.615914 0)
(-0.0460017 -0.561625 0)
(-0.142286 -0.489456 0)
(-0.155144 -0.449136 0)
(-0.236975 -0.387886 0)
(-0.272872 -0.35326 0)
(-0.475434 -0.341491 0)
(-0.440145 -0.294116 0)
(-0.427622 -0.243654 0)
(-0.440194 -0.179454 0)
(0.000143629 -0.685665 0)
(-0.00137037 -0.695623 0)
(-0.00304441 -0.694286 0)
(-0.004588 -0.693242 0)
(-0.00642193 -0.690458 0)
(-0.00756691 -0.688954 0)
(-0.0100571 -0.682985 0)
(-0.0105948 -0.682813 0)
(-0.0138671 -0.673752 0)
(-0.0155544 -0.666723 0)
(-0.0131241 -0.65821 0)
(-0.0331637 -0.639949 0)
(-0.0274182 -0.636113 0)
(-0.0489172 -0.557702 0)
(-0.0342356 -0.518526 0)
(-0.114246 -0.442134 0)
(-0.122492 -0.423592 0)
(-0.172928 -0.353904 0)
(-0.201036 -0.316331 0)
(-0.287077 -0.246549 0)
(-0.326027 -0.0714152 0)
(-0.389374 -0.11188 0)
(-0.338943 0.00489721 0)
(0.000574229 -0.660721 0)
(-0.000445223 -0.668271 0)
(-0.00201887 -0.667221 0)
(-0.00284264 -0.666166 0)
(-0.00439517 -0.664017 0)
(-0.00397166 -0.661821 0)