/*--------------------------------*- C++ -*----------------------------------*\
| =========                 |                                                 |
| \\      /  F ield         | foam-extend: Open Source CFD                    |
|  \\    /   O peration     | Version:     4.1                                |
|   \\  /    A nd           | Web:         http://www.foam-extend.org         |
|    \\/     M anipulation  |                                                 |
\*---------------------------------------------------------------------------*/
FoamFile
{
    version     2.0;
    format      ascii;
    class       volVectorField;
    location    "0.4";
    object      U_0;
}
// * * * * * * * * * * * * * * * * * * * * * * * * * * * * * * * * * * * * * //

dimensions      [0 1 -1 0 0 0 0];

internalField   nonuniform List<vector> 
2268
(
(0.042515 -0.00590087 0)
(0.0519543 -0.00440046 0)
(0.117135 -0.00759783 0)
(0.175606 -0.00448562 0)
(0.20736 -0.00333266 0)
(0.273357 -0.00817858 0)
(0.289992 -0.00369873 0)
(0.366172 -0.00274646 0)
(0.369052 -0.00577458 0)
(0.424328 -0.0358706 0)
(0.373909 -0.0381904 0)
(0.318986 0.00953605 0)
(0.369074 0.00353391 0)
(0.356138 0.00294162 0)
(0.354832 0.00491607 0)
(0.348181 0.00161199 0)
(0.336392 0.0115868 0)
(0.318548 0.00954831 0)
(0.301812 -0.00122731 0)
(0.275807 0.00703722 0)
(0.220355 0.0228523 0)
(0.155935 0.0133799 0)
(0.0649715 0.0330173 0)
(0.0418696 -0.0164302 0)
(0.0531592 -0.013139 0)
(0.121336 -0.0219585 0)
(0.174714 -0.0163577 0)
(0.207385 -0.020424 0)
(0.276448 -0.0106818 0)
(0.295171 -0.0190426 0)
(0.37174 -0.0165061 0)
(0.367726 -0.00669248 0)
(0.44476 0.0326853 0)
(0.350902 -0.0954374 0)
(0.307025 -0.0200499 0)
(0.351493 -0.00984855 0)
(0.341946 -0.00256591 0)
(0.343752 0.00526895 0)
(0.34057 0.00651899 0)
(0.329917 0.00876733 0)
(0.304896 0.0219682 0)
(0.297191 0.0215153 0)
(0.275759 0.0313365 0)
(0.21832 0.0336447 0)
(0.16242 0.0610007 0)
(0.0397249 0.0720377 0)
(0.0388161 -0.0283776 0)
(0.0529111 -0.0230993 0)
(0.12574 -0.0365605 0)
(0.165912 -0.0242765 0)
(0.206008 -0.0281696 0)
(0.281119 -0.0286403 0)
(0.300665 -0.0267596 0)
(0.366999 -0.0211362 0)
(0.398222 -0.0226319 0)
(0.379887 -0.0508461 0)
(0.315238 -0.117966 0)
(0.299058 -0.0358362 0)
(0.344418 -0.0141672 0)
(0.331 -0.00138655 0)
(0.328696 0.0024588 0)
(0.322343 0.0201437 0)
(0.312867 0.0168833 0)
(0.296536 0.0346488 0)
(0.286492 0.0455081 0)
(0.264944 0.0488994 0)
(0.220024 0.0727359 0)
(0.164418 0.0983346 0)
(0.0671333 0.126012 0)
(0.0344054 -0.0380846 0)
(0.0537873 -0.0336197 0)
(0.129382 -0.049032 0)
(0.159334 -0.0349133 0)
(0.214725 -0.048249 0)
(0.282622 -0.0318047 0)
(0.302636 -0.0410464 0)
(0.376704 -0.0416011 0)
(0.313514 -0.036134 0)
(0.290119 -0.0874931 0)
(0.281828 -0.0771358 0)
(0.256533 -0.0143437 0)
(0.270937 -0.0118471 0)
(0.256636 0.00241039 0)
(0.261837 0.0108466 0)
(0.255456 0.0224335 0)
(0.244329 0.0218819 0)
(0.23652 0.0446368 0)
(0.229625 0.0486069 0)
(0.220957 0.0622373 0)
(0.185603 0.0810603 0)
(0.162752 0.134845 0)
(0.0521238 0.180911 0)
(0.0277036 -0.0492546 0)
(0.0535784 -0.0454776 0)
(0.129838 -0.0615431 0)
(0.161257 -0.0439367 0)
(0.21666 -0.0581762 0)
(0.267448 -0.0500445 0)
(0.294403 -0.0486508 0)
(0.375474 -0.0214274 0)
(0.286662 -0.112646 0)
(0.256069 -0.0603231 0)
(0.250387 -0.0770849 0)
(0.234608 -0.0355161 0)
(0.256242 -0.0135707 0)
(0.238516 5.56878e-05 0)
(0.233851 0.0100612 0)
(0.21706 0.0110891 0)
(0.216798 0.0229585 0)
(0.199664 0.0476767 0)
(0.191277 0.0582134 0)
(0.188864 0.0733703 0)
(0.155125 0.0973737 0)
(0.153205 0.159599 0)
(0.085328 0.227898 0)
(0.0227716 -0.057204 0)
(0.0584804 -0.0576963 0)
(0.132679 -0.0749114 0)
(0.161797 -0.055493 0)
(0.207371 -0.0741892 0)
(0.252715 -0.0484696 0)
(0.313062 -0.0733642 0)
(0.274566 -0.0460282 0)
(0.233356 -0.114995 0)
(0.2369 -0.0699115 0)
(0.244817 -0.0690412 0)
(0.231466 -0.0271333 0)
(0.243996 -0.0102973 0)
(0.224974 0.0101828 0)
(0.221141 0.0146556 0)
(0.209232 0.0306418 0)
(0.20292 0.0293844 0)
(0.193312 0.0695034 0)
(0.189045 0.0536413 0)
(0.184519 0.0811477 0)
(0.13776 0.0994147 0)
(0.155227 0.172184 0)
(0.0667807 0.292127 0)
(0.021213 -0.0685549 0)
(0.0647766 -0.0713786 0)
(0.125848 -0.0857031 0)
(0.147882 -0.0610783 0)
(0.207534 -0.0803259 0)
(0.244611 -0.0793174 0)
(0.266422 -0.0443099 0)
(0.24313 -0.116354 0)
(0.221019 -0.10671 0)
(0.229977 -0.0685222 0)
(0.242566 -0.0679674 0)
(0.235464 -0.0357456 0)
(0.248892 -0.00914165 0)
(0.227543 0.00961552 0)
(0.226094 0.0136756 0)
(0.212543 0.0185251 0)
(0.21791 0.0328857 0)
(0.195987 0.0592169 0)
(0.187934 0.0688317 0)
(0.192455 0.0986339 0)
(0.148787 0.114366 0)
(0.184414 0.193717 0)
(0.111382 0.332616 0)
(0.0266412 -0.0771635 0)
(0.06859 -0.0821878 0)
(0.124733 -0.0952488 0)
(0.142723 -0.0781925 0)
(0.199607 -0.101013 0)
(0.24628 -0.0542435 0)
(0.208734 -0.0908103 0)
(0.215892 -0.12727 0)
(0.219644 -0.111901 0)
(0.230582 -0.0810627 0)
(0.255578 -0.0725117 0)
(0.250505 -0.0357109 0)
(0.258593 -0.00713788 0)
(0.231853 0.0222757 0)
(0.226576 0.027703 0)
(0.228647 0.0441801 0)
(0.233295 0.0291379 0)
(0.222511 0.0294274 0)
(0.222083 0.0378122 0)
(0.200516 0.108862 0)
(0.179247 0.0991244 0)
(0.188883 0.257716 0)
(0.102062 0.375666 0)
(0.140893 -0.0564614 0)
(0.284303 -0.0776745 0)
(0.585699 -0.237366 0)
(0.870559 -0.190008 0)
(1.105 -0.128297 0)
(1.35804 -0.124457 0)
(1.42555 -0.0593292 0)
(1.38428 -0.100661 0)
(1.3776 -0.0932159 0)
(1.34001 -0.00613093 0)
(1.12074 0.15834 0)
(-1.19388 0.189319 0)
(-1.67886 0.295733 0)
(-2.11308 0.0322186 0)
(-2.56447 0.227551 0)
(-2.82818 0.0656941 0)
(-2.60861 -0.11786 0)
(-2.27988 -0.0583145 0)
(-0.956195 -0.406239 0)
(0.0417366 -0.137664 0)
(0.193734 -0.117381 0)
(0.422104 -0.267706 0)
(0.624278 -0.0761837 0)
(0.771383 -0.0817568 0)
(0.942915 0.0443753 0)
(1.31285 0.0637707 0)
(1.34963 0.100178 0)
(1.32664 0.114631 0)
(1.1744 0.234018 0)
(0.446337 0.57363 0)
(-2.0054 1.06377 0)
(-2.12334 0.504272 0)
(-2.49124 0.184115 0)
(-3.03128 0.0651303 0)
(-3.27516 -0.0106868 0)
(-2.47668 -0.0261068 0)
(-1.95066 -0.539713 0)
(-0.959709 -1.16532 0)
(-0.0178934 -0.149004 0)
(0.36425 -0.237881 0)
(0.902125 -0.21066 0)
(0.864275 -0.282414 0)
(0.80873 -0.228963 0)
(1.02738 0.0790639 0)
(1.10553 -0.0815106 0)
(1.17881 -0.113861 0)
(0.831173 0.00174078 0)
(0.33245 0.368652 0)
(-1.66063 1.49603 0)
(-2.39964 1.66332 0)
(-2.32241 0.455 0)
(-2.4372 0.0103783 0)
(-2.72337 -0.374404 0)
(-3.10524 0.00642603 0)
(-2.64803 0.346445 0)
(-1.43012 -0.703958 0)
(-0.301365 -1.83768 0)
(-0.0138821 -0.265089 0)
(0.34718 -0.471926 0)
(0.826933 -0.302483 0)
(0.941389 -0.413021 0)
(1.02679 0.0277951 0)
(0.950474 -0.410325 0)
(1.03625 -0.143333 0)
(0.756695 0.148026 0)
(-0.406629 0.855956 0)
(-1.42732 1.07072 0)
(-2.36297 1.68862 0)
(-2.42685 1.93804 0)
(-2.4782 0.671586 0)
(-2.2387 0.000605883 0)
(-2.29956 -0.421285 0)
(-2.29487 -0.189022 0)
(-1.78935 -0.301158 0)
(-1.15545 -0.919817 0)
(-0.151445 -2.34465 0)
(0.0406934 -0.202447 0)
(0.189602 -0.998769 0)
(0.181828 -0.190014 0)
(0.191424 -0.317234 0)
(0.575037 -0.15878 0)
(0.105516 -0.62419 0)
(0.196054 0.116522 0)
(-0.46833 0.443829 0)
(-1.6452 1.2966 0)
(-2.33971 1.35885 0)
(-2.50443 1.86451 0)
(-2.31573 1.69221 0)
(-2.40914 0.625002 0)
(-2.04603 -0.161478 0)
(-1.96039 -0.471634 0)
(-1.79845 -0.316712 0)
(-1.8111 -0.226397 0)
(-1.08148 -1.10842 0)
(-0.133884 -2.48929 0)
(-0.0833241 -0.477482 0)
(0.0639617 -1.22167 0)
(0.0455997 -0.277525 0)
(-0.0224502 -0.240823 0)
(-0.0977621 0.0260963 0)
(-0.48366 -0.158494 0)
(-0.830396 0.273271 0)
(-1.4129 0.745993 0)
(-2.04676 1.12598 0)
(-2.43428 1.61723 0)
(-2.41578 1.98786 0)
(-1.94707 1.06286 0)
(-1.73506 0.488303 0)
(-1.35988 -0.0861411 0)
(-1.2157 -0.371289 0)
(-1.03948 -0.610907 0)
(-0.741174 -0.497679 0)
(-0.781093 -1.14151 0)
(0.140684 -2.64272 0)
(-0.0614492 -0.568999 0)
(-0.0457005 -1.23196 0)
(-0.0846124 -0.169502 0)
(-0.173759 -0.2256 0)
(-0.665201 -0.127777 0)
(-0.928283 0.106485 0)
(-1.40002 0.549604 0)
(-1.73395 0.793858 0)
(-2.01341 0.919207 0)
(-2.2736 1.70394 0)
(-2.1487 1.99393 0)
(-1.37655 0.867537 0)
(-0.635232 -0.0492431 0)
(-0.66785 -0.230678 0)
(-0.573684 -0.302084 0)
(-0.730516 -0.467164 0)
(-0.200857 -0.659133 0)
(-0.334088 -1.14263 0)
(0.393573 -2.84642 0)
(-0.127519 -0.487736 0)
(-0.0963433 -1.33113 0)
(-0.189866 -0.176003 0)
(-0.478566 -0.0927579 0)
(-0.873595 0.0359317 0)
(-1.10559 0.441253 0)
(-1.59424 0.716215 0)
(-1.75587 0.816689 0)
(-1.85918 1.00047 0)
(-1.88033 1.69783 0)
(-1.63828 1.86306 0)
(-0.140013 0.417425 0)
(0.191867 0.477274 0)
(-0.313891 -0.162939 0)
(0.056381 -0.487571 0)
(-0.119959 -0.503717 0)
(0.0869687 -0.656545 0)
(-0.177541 -1.31737 0)
(0.560931 -2.56249 0)
(0.0314677 -0.0988125 0)
(0.0595833 -0.101369 0)
(0.115186 -0.109701 0)
(0.129115 -0.0730216 0)
(0.210507 -0.105881 0)
(0.178201 -0.115783 0)
(0.181436 -0.135906 0)
(0.216421 -0.12766 0)
(0.221088 -0.108271 0)
(0.244412 -0.0880259 0)
(0.266953 -0.0716077 0)
(0.267597 -0.0339528 0)
(0.283082 0.00656011 0)
(0.258285 0.0256816 0)
(0.264115 0.0590953 0)
(0.23069 0.0634227 0)
(0.220785 0.0586247 0)
(0.218254 0.0774307 0)
(0.252828 0.0328698 0)
(0.216244 0.126726 0)
(0.257041 0.140757 0)
(0.306002 0.308517 0)
(0.20338 0.431167 0)
(0.0381922 -0.115008 0)
(0.0485627 -0.118629 0)
(0.128471 -0.124762 0)
(0.11522 -0.136212 0)
(0.124612 -0.12825 0)
(0.162017 -0.171663 0)
(0.184521 -0.138454 0)
(0.205462 -0.154712 0)
(0.250433 -0.148566 0)
(0.280777 -0.127879 0)
(0.309621 -0.102378 0)
(0.316873 -0.0556519 0)
(0.322163 -0.00493624 0)
(0.30588 0.0433497 0)
(0.272778 0.0679473 0)
(0.262697 0.0513116 0)
(0.277336 0.0683487 0)
(0.217348 0.0663627 0)
(0.251543 0.0700294 0)
(0.357268 0.125647 0)
(0.353556 0.214893 0)
(0.36053 0.289656 0)
(0.384196 0.311117 0)
(0.0266255 -0.142822 0)
(0.0429962 -0.148348 0)
(0.0805913 -0.145525 0)
(0.108176 -0.177953 0)
(0.123718 -0.159781 0)
(0.15403 -0.173139 0)
(0.17746 -0.179286 0)
(0.22484 -0.197049 0)
(0.298227 -0.184444 0)
(0.32224 -0.150922 0)
(0.351817 -0.108327 0)
(0.344631 -0.0499184 0)
(0.360804 0.0178355 0)
(0.299217 0.0756818 0)
(0.285353 0.0551206 0)
(0.259148 0.0496024 0)
(0.258064 0.0497686 0)
(0.241409 0.0494316 0)
(0.279211 0.118681 0)
(0.319857 0.0945091 0)
(0.370552 0.147034 0)
(0.367017 0.160808 0)
(0.360899 0.240691 0)
(0.0533096 -0.186812 0)
(0.0451582 -0.172039 0)
(0.0903554 -0.191508 0)
(0.0955698 -0.175783 0)
(0.122219 -0.174796 0)
(0.159589 -0.222464 0)
(0.20667 -0.212816 0)
(0.234754 -0.270354 0)
(0.242125 -0.243396 0)
(0.252451 -0.182363 0)
(0.289236 -0.125584 0)
(0.287177 -0.0622871 0)
(0.225822 0.0538308 0)
(0.215433 0.128426 0)
(0.228382 0.101802 0)
(0.217366 0.0784947 0)
(0.209445 0.0820352 0)
(0.233278 0.0508206 0)
(0.286518 0.0801676 0)
(0.358195 0.0517033 0)
(0.386224 0.126335 0)
(0.421764 0.114725 0)
(0.399077 0.169711 0)
(0.00472153 -0.236318 0)
(-0.0352079 -0.185597 0)
(-0.00710774 -0.201939 0)
(0.0196052 -0.204515 0)
(0.0732644 -0.225776 0)
(0.0707011 -0.247949 0)
(0.0577721 -0.24902 0)
(0.0197619 -0.243072 0)
(-0.0268027 -0.207725 0)
(-0.0767117 -0.193473 0)
(-0.091957 -0.136415 0)
(-0.0828131 0.0109706 0)
(-0.0624732 0.111456 0)
(0.0687141 0.0821662 0)
(0.0905492 0.0501816 0)
(0.174054 0.0698422 0)
(0.129652 0.043132 0)
(0.0951553 -0.0322554 0)
(0.164362 -0.131481 0)
(0.473181 0.00389362 0)
(0.443753 0.0885219 0)
(0.400756 0.135176 0)
(0.400577 0.15286 0)
(-0.00911366 -0.171069 0)
(-0.0482782 -0.165432 0)
(-0.0190012 -0.243113 0)
(0.0119644 -0.256512 0)
(0.064627 -0.237226 0)
(0.0529136 -0.214473 0)
(0.0321134 -0.174202 0)
(-0.00986028 -0.182784 0)
(-0.0547825 -0.166409 0)
(-0.127171 -0.125928 0)
(-0.131262 -0.106809 0)
(-0.100968 -0.0881719 0)
(-0.0122774 -0.10852 0)
(0.0775807 0.0188178 0)
(0.0975238 -0.00693896 0)
(0.17948 0.0440545 0)
(0.16229 0.151981 0)
(0.300558 0.154859 0)
(0.159143 -0.0727039 0)
(0.244557 -0.0999272 0)
(0.214408 -0.239126 0)
(0.41307 0.136118 0)
(0.380992 0.178054 0)
(-0.00760805 -0.166589 0)
(-0.0104158 -0.1709 0)
(-0.00815874 -0.256037 0)
(0.0377345 -0.292346 0)
(0.0509903 -0.258591 0)
(0.0481887 -0.206945 0)
(0.0308927 -0.169549 0)
(0.0108227 -0.170798 0)
(-0.00935799 -0.148279 0)
(-0.0206928 -0.147921 0)
(-0.0335344 -0.0386596 0)
(0.00842906 -0.114165 0)
(0.0278765 -0.0687518 0)
(0.0539394 -0.0796174 0)
(0.0695599 -0.0600771 0)
(0.147973 -0.0085403 0)
(0.144953 0.00867338 0)
(0.228943 -0.00192755 0)
(0.207777 -0.189835 0)
(0.29823 -0.204176 0)
(0.206341 0.21669 0)
(0.373714 0.240166 0)
(0.299929 -0.0555573 0)
(-0.00976164 -0.158632 0)
(0.0241884 -0.172203 0)
(0.0223582 -0.286532 0)
(0.071177 -0.314591 0)
(0.0626053 -0.251935 0)
(0.0604622 -0.196356 0)
(0.0549622 -0.146597 0)
(0.0451053 -0.150855 0)
(0.0403584 -0.142974 0)
(0.0264669 -0.126591 0)
(0.041386 -0.127142 0)
(0.0549349 -0.134057 0)
(0.026156 -0.166985 0)
(0.0084551 -0.108048 0)
(0.066226 -0.0993771 0)
(0.100698 -0.0124981 0)
(0.16675 0.014336 0)
(0.18983 0.0220357 0)
(0.227106 -0.0622714 0)
(0.135883 -0.0585745 0)
(0.163001 -0.240277 0)
(0.20838 -0.0726758 0)
(0.237328 0.117897 0)
(-0.0129592 -0.17785 0)
(0.0386933 -0.201995 0)
(0.0316426 -0.302689 0)
(0.0834773 -0.330179 0)
(0.0713571 -0.244616 0)
(0.0617653 -0.194405 0)
(0.0643122 -0.147059 0)
(0.0458172 -0.154886 0)
(0.0581601 -0.119555 0)
(0.032869 -0.156259 0)
(0.0660995 -0.14291 0)
(0.0778169 -0.151921 0)
(0.0779285 -0.191883 0)
(0.0740182 -0.171339 0)
(0.102631 -0.146277 0)
(0.12216 -0.120699 0)
(0.201681 -0.0840767 0)
(0.248726 -0.0633645 0)
(0.236315 -0.0309978 0)
(0.22103 -0.0991242 0)
(0.275828 -0.0172377 0)
(0.539149 0.0481263 0)
(0.382064 0.100043 0)
(-0.00503862 -0.185657 0)
(0.0334127 -0.214092 0)
(0.0364533 -0.336822 0)
(0.0991676 -0.35104 0)
(0.0766806 -0.235893 0)
(0.0712407 -0.189756 0)
(0.0795969 -0.136692 0)
(0.08374 -0.14717 0)
(0.0624163 -0.0948961 0)
(0.0856069 -0.125965 0)
(0.118703 -0.096631 0)
(0.0827359 -0.143958 0)
(0.0835973 -0.170077 0)
(0.113452 -0.147666 0)
(0.106127 -0.167069 0)
(0.140735 -0.104193 0)
(0.266272 -0.127541 0)
(0.299004 -0.00050747 0)
(0.258544 -0.0917829 0)
(0.243211 -0.0689952 0)
(0.259479 -0.0661059 0)
(0.247589 -0.0168007 0)
(0.221661 0.0520197 0)
(-0.00269921 -0.208433 0)
(0.0283171 -0.245472 0)
(0.0460382 -0.371049 0)
(0.0967787 -0.36811 0)
(0.0721677 -0.21549 0)
(0.0667469 -0.19952 0)
(0.0789606 -0.158084 0)
(0.0851303 -0.131588 0)
(0.0877309 -0.117179 0)
(0.0981658 -0.111521 0)
(0.117838 -0.137957 0)
(0.09865 -0.128433 0)
(0.12193 -0.223488 0)
(0.107988 -0.12924 0)
(0.147513 -0.151977 0)
(0.205517 -0.0877532 0)
(0.289603 -0.149108 0)
(0.240861 -0.150713 0)
(0.24311 -0.174309 0)
(0.257275 -0.160057 0)
(0.265713 -0.0169854 0)
(0.562955 0.0149661 0)
(0.473711 -0.00656193 0)
(-0.010886 -0.216685 0)
(0.0333902 -0.254612 0)
(0.0485401 -0.416432 0)
(0.0923067 -0.375997 0)
(0.0523916 -0.209374 0)
(0.0540845 -0.19295 0)
(0.120095 -0.151389 0)
(0.0983489 -0.169805 0)
(0.104174 -0.0960985 0)
(0.125637 -0.167304 0)
(0.150181 -0.0809147 0)
(0.100288 -0.172873 0)
(0.157967 -0.157335 0)
(0.217086 -0.196937 0)
(0.15477 -0.107775 0)
(0.186397 -0.184968 0)
(0.253553 -0.159247 0)
(0.240318 -0.0934408 0)
(0.262041 -0.144566 0)
(0.337522 -0.00520219 0)
(0.500767 -0.0333251 0)
(0.424813 -0.0672521 0)
(0.497693 -0.20562 0)
(0.0089132 -0.229026 0)
(0.0224739 -0.261841 0)
(0.0332821 -0.472445 0)
(0.0827048 -0.387236 0)
(0.0405185 -0.165206 0)
(0.0669028 -0.187455 0)
(0.0627977 -0.178631 0)
(0.0809328 -0.221158 0)
(0.121186 -0.166808 0)
(0.17148 -0.265652 0)
(0.135097 -0.103125 0)
(0.179321 -0.220452 0)
(0.171149 -0.176169 0)
(0.203282 -0.246805 0)
(0.167755 -0.161552 0)
(0.220365 -0.14168 0)
(0.447837 -0.223493 0)
(0.319185 -0.223259 0)
(0.345514 -0.251598 0)
(0.472055 -0.121511 0)
(0.361991 0.0228319 0)
(0.383179 -0.0396527 0)
(0.486926 -0.0535964 0)
(0.0132801 -0.230875 0)
(0.00986735 -0.265766 0)
(0.020508 -0.505816 0)
(0.0770617 -0.370148 0)
(0.0252695 -0.141134 0)
(0.0476978 -0.199194 0)
(0.0681713 -0.234055 0)
(0.0765912 -0.236923 0)
(0.0673231 -0.274086 0)
(0.177384 -0.316106 0)
(0.306448 -0.121896 0)
(0.229822 -0.225315 0)
(0.149453 -0.180997 0)
(0.233495 -0.215052 0)
(0.334181 -0.076326 0)
(0.32893 -0.214557 0)
(0.32398 -0.157943 0)
(0.313484 -0.276017 0)
(0.41234 -0.121345 0)
(0.685052 -0.271495 0)
(0.621984 -0.105699 0)
(0.490827 -0.114133 0)
(0.598565 -0.0349571 0)
(0.0154609 -0.257575 0)
(0.00864055 -0.285072 0)
(0.0358162 -0.537065 0)
(0.0613558 -0.360709 0)
(0.00747113 -0.139185 0)
(0.0478861 -0.219453 0)
(0.0322517 -0.248798 0)
(0.059865 -0.225835 0)
(0.106863 -0.329252 0)
(0.311907 -0.299766 0)
(0.359731 -0.424266 0)
(0.231899 -0.331274 0)
(0.0867666 -0.206557 0)
(0.299522 -0.124243 0)
(0.326039 -0.255896 0)
(0.380559 -0.394088 0)
(0.410141 -0.341595 0)
(0.382163 -0.238891 0)
(0.411082 -0.163795 0)
(0.490921 -0.183308 0)
(0.715708 -0.246735 0)
(0.698311 -0.140748 0)
(0.776198 -0.0594713 0)
(0.00891605 -0.246388 0)
(0.00443975 -0.283037 0)
(0.0287267 -0.554761 0)
(0.0583511 -0.351115 0)
(0.0123336 -0.0938302 0)
(0.0393346 -0.256439 0)
(0.042225 -0.230761 0)
(0.0411526 -0.254561 0)
(0.130332 -0.285188 0)
(0.15419 -0.236184 0)
(0.26539 -0.38711 0)
(0.300092 -0.322841 0)
(0.277271 -0.239752 0)
(0.283914 -0.23816 0)
(0.239912 -0.381572 0)
(0.35677 -0.280901 0)
(0.461865 -0.421456 0)
(0.41485 -0.208793 0)
(0.522098 -0.338409 0)
(0.69807 -0.149232 0)
(0.748407 -0.186503 0)
(0.857285 -0.154304 0)
(0.853273 -0.0464704 0)
(-0.00761003 -0.296943 0)
(-1.91816e-05 -0.33571 0)
(0.0176569 -0.584426 0)
(0.0267842 -0.377176 0)
(-0.00268331 -0.127014 0)
(0.0548836 -0.306348 0)
(0.0173062 -0.258925 0)
(0.0675198 -0.315457 0)
(0.21056 -0.305158 0)
(0.231656 -0.333687 0)
(0.200944 -0.27645 0)
(0.199959 -0.291881 0)
(0.205291 -0.228924 0)
(0.205848 -0.302377 0)
(0.331049 -0.308014 0)
(0.348695 -0.233149 0)
(0.365346 -0.334762 0)
(0.526554 -0.309581 0)
(0.539131 -0.391085 0)
(0.685078 -0.26057 0)
(0.870799 -0.290163 0)
(1.01371 -0.227126 0)
(0.833664 -0.119005 0)
(-0.0207597 -0.184131 0)
(0.0174822 -0.25046 0)
(0.0140627 -0.585172 0)
(0.0359713 -0.256869 0)
(-0.0153345 -0.134122 0)
(0.0467007 -0.215775 0)
(0.0417493 -0.225045 0)
(0.0935661 -0.315577 0)
(0.173557 -0.369415 0)
(0.188191 -0.421853 0)
(0.121078 -0.304226 0)
(0.202926 -0.319746 0)
(0.202647 -0.266256 0)
(0.273693 -0.358763 0)
(0.315247 -0.251323 0)
(0.276217 -0.318208 0)
(0.390521 -0.206813 0)
(0.425316 -0.350725 0)
(0.527965 -0.343747 0)
(0.828302 -0.377448 0)
(0.990818 -0.353868 0)
(1.05848 -0.124293 0)
(0.943131 -0.323394 0)
(-0.0370903 -0.35378 0)
(-0.0927127 -0.468715 0)
(0.00697577 -0.529527 0)
(-0.0333629 -0.467844 0)
(-0.0585949 -0.351849 0)
(0.125071 -0.471783 0)
(-0.0982327 -0.321315 0)
(0.0445219 -0.303486 0)
(0.0926653 -0.353809 0)
(0.222225 -0.441792 0)
(0.13669 -0.417945 0)
(0.169484 -0.410483 0)
(0.143995 -0.421063 0)
(0.328117 -0.358054 0)
(0.38406 -0.323851 0)
(0.357938 -0.222801 0)
(0.440974 -0.277807 0)
(0.424505 -0.377609 0)
(0.483011 -0.38983 0)
(0.71333 -0.374733 0)
(1.19758 -0.441989 0)
(1.13547 -0.472164 0)
(0.900785 -0.411997 0)
(-0.0310118 -0.509337 0)
(0.183261 -0.706492 0)
(0.00118877 -0.782607 0)
(-0.142753 -0.627434 0)
(-0.0223225 -0.532215 0)
(0.0646667 -0.627623 0)
(0.154827 -0.563685 0)
(0.111675 -0.561356 0)
(0.0494907 -0.407587 0)
(0.152288 -0.446932 0)
(0.0820049 -0.464142 0)
(0.156663 -0.345437 0)
(0.277853 -0.435984 0)
(0.449086 -0.346258 0)
(0.381327 -0.605419 0)
(0.154458 -0.388224 0)
(0.331694 -0.521471 0)
(0.381575 -0.451742 0)
(0.544456 -0.44854 0)
(0.895279 -0.393533 0)
(1.04465 -0.510485 0)
(1.21985 -0.636 0)
(1.27984 -0.614754 0)
(-0.0494625 -0.521604 0)
(0.0652349 -0.717922 0)
(-0.0144624 -0.873721 0)
(0.00323803 -0.617678 0)
(-0.00931643 -0.578668 0)
(0.0958961 -0.608718 0)
(0.0412094 -0.65236 0)
(0.0883129 -0.672222 0)
(0.167951 -0.485514 0)
(0.187374 -0.450685 0)
(0.140418 -0.455872 0)
(0.239973 -0.443282 0)
(0.286886 -0.535956 0)
(0.118511 -0.468758 0)
(0.240002 -0.665466 0)
(0.337895 -0.564216 0)
(0.432416 -0.597172 0)
(0.548955 -0.533649 0)
(0.628786 -0.355948 0)
(0.780491 -0.567039 0)
(1.07032 -0.638348 0)
(1.17116 -0.67479 0)
(1.42577 -0.760777 0)
(-0.0485951 -0.510623 0)
(0.064803 -0.750155 0)
(-0.021209 -0.78146 0)
(0.0242949 -0.622673 0)
(-0.000204192 -0.68675 0)
(0.0679391 -0.67616 0)
(-0.00395622 -0.755857 0)
(0.156795 -0.506284 0)
(0.231192 -0.480582 0)
(0.16917 -0.630031 0)
(0.00301703 -0.543971 0)
(0.140769 -0.62358 0)
(0.327252 -0.656149 0)
(0.225213 -0.640614 0)
(0.243383 -0.613473 0)
(0.257584 -0.592754 0)
(0.413326 -0.586555 0)
(0.63244 -0.459915 0)
(0.534183 -0.606577 0)
(0.722465 -0.50378 0)
(0.958925 -0.727029 0)
(1.2754 -0.813629 0)
(1.33222 -1.06547 0)
(-0.0771533 -0.58858 0)
(0.0258483 -0.76877 0)
(-0.0512642 -0.762585 0)
(-0.0692965 -0.721995 0)
(0.00639705 -0.482636 0)
(0.0866007 -0.734446 0)
(0.0742961 -0.554778 0)
(0.244221 -0.442615 0)
(0.112018 -0.538683 0)
(0.151547 -0.682598 0)
(0.118115 -0.635942 0)
(0.110206 -0.615992 0)
(0.243474 -0.651424 0)
(0.111006 -0.79867 0)
(0.220682 -0.761107 0)
(0.357955 -0.816867 0)
(0.582686 -0.555531 0)
(0.500862 -0.736667 0)
(0.637285 -0.89665 0)
(0.737164 -0.801927 0)
(0.821978 -0.909076 0)
(1.05396 -0.993219 0)
(1.38329 -1.252 0)
(-0.0155392 -0.369779 0)
(0.116956 -0.78426 0)
(-0.0941689 -0.781032 0)
(0.0826088 -0.463817 0)
(0.0382531 -0.384888 0)
(0.10756 -0.499641 0)
(0.179066 -0.426792 0)
(0.148727 -0.342733 0)
(0.0584246 -0.462737 0)
(0.105561 -0.473897 0)
(0.0740498 -0.614327 0)
(0.107596 -0.574002 0)
(0.0962049 -0.639949 0)
(0.0493373 -0.785222 0)
(0.195626 -0.612524 0)
(0.429581 -0.761201 0)
(0.566923 -0.704904 0)
(0.298362 -0.864266 0)
(0.563755 -0.977685 0)
(0.757868 -0.94346 0)
(1.00402 -1.09332 0)
(1.22584 -1.19541 0)
(1.51545 -1.252 0)
(-0.165011 -0.252518 0)
(-0.0344927 -0.537414 0)
(0.0941297 -0.570386 0)
(0.157278 -0.384213 0)
(0.042208 -0.419819 0)
(0.135033 -0.421084 0)
(0.167226 -0.414576 0)
(0.182934 -0.504376 0)
(-0.0404498 -0.621938 0)
(-0.0874969 -0.561535 0)
(0.0175297 -0.671786 0)
(0.0494525 -0.67242 0)
(0.0489389 -0.763809 0)
(0.144158 -0.829673 0)
(0.216361 -0.748467 0)
(0.314669 -0.687698 0)
(0.469636 -0.778523 0)
(0.202009 -0.833258 0)
(0.581231 -0.797446 0)
(0.685011 -0.944576 0)
(1.11144 -1.12271 0)
(1.00698 -1.63997 0)
(0.978018 -1.84033 0)
(-0.0683964 -0.167014 0)
(0.0475923 -0.45146 0)
(-0.00791374 -0.456745 0)
(0.0283111 -0.314983 0)
(0.0262715 -0.311008 0)
(0.162963 -0.407447 0)
(0.00362055 -0.65345 0)
(-0.10802 -0.631001 0)
(-0.0116106 -0.735553 0)
(-0.0276625 -0.653449 0)
(0.0119852 -0.701454 0)
(-0.00939527 -0.669673 0)
(-0.0469166 -0.769775 0)
(0.0158928 -0.662745 0)
(0.279442 -0.795412 0)
(0.329832 -0.651882 0)
(0.478688 -0.991634 0)
(0.149067 -0.95221 0)
(0.698 -0.964092 0)
(0.52843 -1.34225 0)
(0.805773 -1.64393 0)
(0.589045 -2.02109 0)
(0.59282 -2.00082 0)
(-0.0927748 -0.212126 0)
(0.0721766 -0.466837 0)
(0.0543737 -0.482651 0)
(0.159706 -0.460009 0)
(0.0938569 -0.592796 0)
(-0.0921248 -0.638756 0)
(-0.0896783 -0.749365 0)
(-0.0409611 -0.679498 0)
(-0.0264245 -0.691046 0)
(-0.0380616 -0.672448 0)
(0.0139557 -0.696743 0)
(-0.0171584 -0.664603 0)
(0.072349 -0.729735 0)
(-0.0196995 -0.631927 0)
(0.260946 -0.730801 0)
(-0.00405795 -0.680411 0)
(0.388061 -1.08354 0)
(0.166141 -1.00672 0)
(0.34842 -1.22091 0)
(0.281313 -1.44079 0)
(0.542192 -1.68339 0)
(0.267085 -1.83765 0)
(-0.276653 -1.39659 0)
(0.148303 -0.548811 0)
(0.121802 -0.722579 0)
(-0.121556 -0.688287 0)
(-0.133644 -0.751338 0)
(-0.0604611 -0.75788 0)
(-0.0327431 -0.795163 0)
(-0.0249057 -0.749459 0)
(-0.0314359 -0.722196 0)
(-0.00982494 -0.718274 0)
(-0.0296825 -0.718698 0)
(0.0142192 -0.720079 0)
(-0.0278895 -0.727394 0)
(0.0678668 -0.747144 0)
(-0.0258058 -0.747243 0)
(0.237491 -0.72142 0)
(-0.0726361 -0.853024 0)
(0.298121 -0.987499 0)
(-0.0238231 -0.989242 0)
(0.291801 -1.35654 0)
(0.241875 -1.41879 0)
(0.410064 -1.55071 0)
(-0.0303659 -1.97796 0)
(-0.711724 -1.34637 0)
(0.0252594 -0.696158 0)
(0.0181102 -0.83035 0)
(0.00200204 -0.82422 0)
(-0.0131651 -0.760503 0)
(-0.0196159 -0.731877 0)
(-0.0234696 -0.722771 0)
(-0.022401 -0.720709 0)
(-0.0278218 -0.718269 0)
(-0.00887477 -0.716808 0)
(-0.0277592 -0.727325 0)
(0.0148598 -0.719242 0)
(-0.0323477 -0.738441 0)
(0.0537314 -0.747593 0)
(-0.0378828 -0.756699 0)
(0.119451 -0.698137 0)
(-0.174181 -0.893286 0)
(0.384957 -0.763601 0)
(-0.117597 -1.31741 0)
(-0.030574 -0.967524 0)
(-0.00841664 -1.33244 0)
(-0.268061 -1.77902 0)
(-0.10006 -2.07317 0)
(-0.736274 -1.2984 0)
(0.012819 -0.677459 0)
(0.00533435 -0.732777 0)
(-0.0193876 -0.732565 0)
(-0.0447073 -0.741938 0)
(-0.0261886 -0.738226 0)
(-0.0190898 -0.737271 0)
(-0.0194174 -0.731868 0)
(-0.0223961 -0.734517 0)
(-0.00859261 -0.729251 0)
(-0.0256046 -0.746414 0)
(0.00880698 -0.726957 0)
(-0.0409289 -0.737223 0)
(0.0365707 -0.722013 0)
(-0.0318113 -0.674973 0)
(-0.0687397 -0.689991 0)
(-0.0999963 -0.91721 0)
(0.0156141 -0.620586 0)
(-0.151075 -1.54189 0)
(0.162789 -0.686492 0)
(-0.247796 -1.39819 0)
(-0.587445 -1.2566 0)
(-0.287358 -1.32524 0)
(-0.741352 -1.3389 0)
(0.00377106 -0.710226 0)
(0.00066846 -0.752051 0)
(-0.00321712 -0.750747 0)
(-0.0176468 -0.747431 0)
(-0.0124831 -0.723995 0)
(-0.0136552 -0.733377 0)
(-0.0138267 -0.726536 0)
(-0.0169176 -0.73405 0)
(-0.00875386 -0.732821 0)
(-0.0214545 -0.753818 0)
(0.0235179 -0.733254 0)
(-0.00977577 -0.793622 0)
(0.170164 -0.760498 0)
(-0.0585585 -0.87585 0)
(-0.1833 -0.749621 0)
(-0.163236 -0.817276 0)
(-0.170727 -0.787477 0)
(0.0128225 -1.06659 0)
(0.0458609 -1.19082 0)
(-0.280206 -1.48802 0)
(-0.585464 -1.18804 0)
(-0.633903 -1.09957 0)
(-0.75017 -1.1964 0)
(0.0016229 -0.697741 0)
(-0.00255292 -0.730326 0)
(-0.0124335 -0.731356 0)
(-0.0171337 -0.730838 0)
(-0.0103572 -0.726209 0)
(-0.0175164 -0.735093 0)
(-0.0160371 -0.734029 0)
(-0.0224052 -0.741293 0)
(-0.0209142 -0.745955 0)
(-0.0217611 -0.758468 0)
(-0.031502 -0.761793 0)
(-0.0425839 -0.813317 0)
(-0.0322802 -0.829815 0)
(-0.0965529 -0.944834 0)
(-0.0949668 -0.767372 0)
(-0.129543 -0.762581 0)
(-0.122379 -0.734404 0)
(-0.27407 -0.859086 0)
(-0.249057 -1.30908 0)
(-0.374195 -1.30348 0)
(-0.418625 -1.28796 0)
(-0.611915 -0.986972 0)
(-1.07248 -0.864975 0)
(0.000585007 -0.703538 0)
(-0.002212 -0.731535 0)
(-0.00499783 -0.732062 0)
(-0.0117854 -0.728747 0)
(-0.0122376 -0.72766 0)
(-0.0183225 -0.732449 0)
(-0.0171733 -0.731461 0)
(-0.0266672 -0.736463 0)
(-0.0244483 -0.733419 0)
(-0.0380478 -0.747231 0)
(-0.0322782 -0.763004 0)
(-0.0589409 -0.763685 0)
(-0.0535345 -0.774719 0)
(-0.103954 -0.765671 0)
(-0.126973 -0.713107 0)
(-0.134313 -0.737423 0)
(-0.185856 -0.680345 0)
(-0.393133 -0.870331 0)
(-0.460837 -0.947117 0)
(-0.292217 -0.833314 0)
(-0.362278 -0.83352 0)
(-0.520662 -1.01542 0)
(-0.93389 -0.597171 0)
(0.000461076 -0.697212 0)
(-0.00348024 -0.721866 0)
(-0.00773351 -0.72321 0)
(-0.0140206 -0.72512 0)
(-0.0152449 -0.724406 0)
(-0.0221332 -0.726785 0)
(-0.0221973 -0.726196 0)
(-0.0295424 -0.729983 0)
(-0.0326793 -0.731229 0)
(-0.0424192 -0.738237 0)
(-0.0512247 -0.739361 0)
(-0.0687925 -0.762377 0)
(-0.0791215 -0.76479 0)
(-0.101758 -0.771377 0)
(-0.112992 -0.691338 0)
(-0.12866 -0.700478 0)
(-0.247686 -0.712358 0)
(-0.363668 -0.66827 0)
(-0.241691 -0.703453 0)
(-0.230092 -0.695734 0)
(-0.590469 -0.744614 0)
(-0.657017 -0.928901 0)
(-0.893537 -0.491886 0)
(0.000596028 -0.698525 0)
(-0.00395451 -0.721717 0)
(-0.00747212 -0.722043 0)
(-0.010827 -0.719817 0)
(-0.0120952 -0.719547 0)
(-0.0180437 -0.718341 0)
(-0.0182088 -0.716096 0)
(-0.026841 -0.717016 0)
(-0.0267616 -0.713822 0)
(-0.0447758 -0.714425 0)
(-0.0420205 -0.714064 0)
(-0.0680281 -0.717935 0)
(-0.07055 -0.714216 0)
(-0.10808 -0.715109 0)
(-0.112563 -0.65342 0)
(-0.181738 -0.651922 0)
(-0.22344 -0.665272 0)
(-0.318348 -0.587093 0)
(-0.340497 -0.600615 0)
(-0.458602 -0.705614 0)
(-0.591732 -0.756064 0)
(-0.551791 -0.754139 0)
(-0.936292 -0.456486 0)
(-0.000464685 -0.69876 0)
(-0.00448907 -0.716992 0)
(-0.00726816 -0.714887 0)
(-0.00999167 -0.715868 0)
(-0.0119239 -0.713451 0)
(-0.0162829 -0.714375 0)
(-0.0180591 -0.710237 0)
(-0.0247264 -0.710987 0)
(-0.0267906 -0.703448 0)
(-0.0381695 -0.704788 0)
(-0.0429375 -0.694658 0)
(-0.0607179 -0.705345 0)
(-0.064583 -0.69256 0)
(-0.0929907 -0.694479 0)
(-0.0891203 -0.617376 0)
(-0.150226 -0.585972 0)
(-0.198766 -0.565197 0)
(-0.287126 -0.554994 0)
(-0.268955 -0.529936 0)
(-0.523715 -0.549184 0)
(-0.764395 -0.550703 0)
(-0.708268 -0.441501 0)
(-0.658603 -0.443687 0)
(-0.000570768 -0.692521 0)
(-0.00321907 -0.707052 0)
(-0.00439275 -0.705391 0)
(-0.00682634 -0.704431 0)
(-0.00834225 -0.701742 0)
(-0.011813 -0.700713 0)
(-0.0130713 -0.695017 0)
(-0.0190631 -0.694323 0)
(-0.0183893 -0.68322 0)
(-0.0300924 -0.683774 0)
(-0.0315117 -0.666915 0)
(-0.04791 -0.667968 0)
(-0.0522924 -0.643213 0)
(-0.0916967 -0.667868 0)
(-0.0776047 -0.58994 0)
(-0.156137 -0.548128 0)
(-0.168137 -0.526189 0)
(-0.257877 -0.481947 0)
(-0.333293 -0.500485 0)
(-0.413234 -0.578209 0)
(-0.471957 -0.456382 0)
(-0.516414 -0.271034 0)
(-0.551429 -0.388174 0)
(-0.00014649 -0.683579 0)
(-0.00260405 -0.696508 0)
(-0.0046682 -0.694754 0)
(-0.00697063 -0.694068 0)
(-0.00899553 -0.691048 0)
(-0.0117107 -0.690391 0)
(-0.0137752 -0.684348 0)
(-0.0173922 -0.684158 0)
(-0.0183962 -0.67131 0)
(-0.0234303 -0.672605 0)
(-0.0252978 -0.654754 0)
(-0.0272354 -0.650732 0)
(-0.0494052 -0.630759 0)
(-0.0837044 -0.618708 0)
(-0.045359 -0.564979 0)
(-0.141676 -0.492597 0)
(-0.154428 -0.452292 0)
(-0.236366 -0.391016 0)
(-0.272018 -0.355953 0)
(-0.472656 -0.34327 0)
(-0.436327 -0.295596 0)
(-0.423849 -0.246189 0)
(-0.435538 -0.185564 0)
(0.000132731 -0.68897 0)
(-0.0014114 -0.698922 0)
(-0.00309472 -0.697558 0)
(-0.00462959 -0.696492 0)
(-0.00642643 -0.693686 0)
(-0.00755779 -0.692161 0)
(-0.00997812 -0.686186 0)
(-0.0103889 -0.685957 0)
(-0.0140178 -0.67686 0)
(-0.0158312 -0.669865 0)
(-0.0127345 -0.661232 0)
(-0.0325658 -0.643206 0)
(-0.0265153 -0.638896 0)
(-0.0480466 -0.5611 0)
(-0.033771 -0.521829 0)
(-0.113849 -0.445273 0)
(-0.121944 -0.42676 0)
(-0.172324 -0.357143 0)
(-0.200059 -0.319907 0)
(-0.285083 -0.24962 0)
(-0.322825 -0.0756178 0)
(-0.386215 -0.11554 0)
(-0.332938 0.00426371 0)
(0.000565845 -0.663945 0)
(-0.000470894 -0.67149 0)
(-0.002046 -0.670416 0)
(-0.00286884 -0.669346 0)
(-0.00438902 -0.667181 0)