/*--------------------------------*- C++ -*----------------------------------*\
| =========                 |                                                 |
| \\      /  F ield         | foam-extend: Open Source CFD                    |
|  \\    /   O peration     | Version:     4.1                                |
|   \\  /    A nd           | Web:         http://www.foam-extend.org         |
|    \\/     M anipulation  |                                                 |
\*---------------------------------------------------------------------------*/
FoamFile
{
    version     2.0;
    format      ascii;
    class       volScalarField;
    location    "0.95";
    object      p;
}
// * * * * * * * * * * * * * * * * * * * * * * * * * * * * * * * * * * * * * //

dimensions      [1 -1 -2 0 0 0 0];

internalField   nonuniform List<scalar> 
2268
(
1102.25
1101.25
1100.01
1091.4
1087.1
1063.6
1048.48
1023.83
1005.72
978.956
959.344
915.906
869.839
833.948
795.888
794.999
783.778
811.265
817.458
833.955
839.441
850.974
848.925
1043.68
1042.86
1040.95
1033.25
1029.55
1006
990.591
964.377
946.17
923.185
898.149
852.225
812.265
771.115
730.384
735.025
721.161
753.478
758.473
775.764
780.225
793.021
790.308
984.624
984.623
983.025
974.621
972.132
945.137
931.672
907.337
893.202
869.539
835.261
799.83
748.209
701.166
665.14
666.031
657.431
692.332
698.379
716.468
723.383
737.476
732.129
925.897
927.008
923.066
919.473
912.913
890.893
871.19
855.545
821.611
813.153
778.346
737.557
678.815
629.453
589.349
599.518
592.737
632.389
640.348
660.432
665.619
681.673
673.253
866.92
867.757
867.529
861.247
857.385
829.771
817.155
794.496
771.467
758.004
723.283
674.936
620.847
564.004
507.485
514.619
527.217
573.737
580.774
602.278
610.597
624.282
615.252
807.319
811.385
810.322
809.529
800.497
773.344
765.216
735.102
717.853
701.815
667.359
616.038
550.44
489.614
420.19
422.655
458.55
509.169
526.768
542.991
551.719
571.75
557.896
749.068
751.888
750.084
748.554
752.61
710.838
714.916
680.395
654.492
651.338
608.88
558.016
485.784
400.182
330.932
325.487
380.709
443.378
466.165
486.382
501.606
515.141
498.631
687.901
693.491
699.243
695.689
692.836
657.347
663.116
637.744
600.779
596.059
539.601
487.714
385.41
371.647
262.11
234.759
319.038
364.825
415.547
423.558
440.911
452.621
439.953
537.89
407.087
410.096
501.892
552.623
516.214
450.598
408.5
388.805
437.586
506.258
464.674
433.51
448.773
475.504
522.411
559.351
608.456
607.003
464.645
318.819
323.081
440.064
506.122
473.683
395.639
356.493
323.687
380.209
467.822
420.087
372.942
394.224
428.756
466.875
509.919
555.49
553.739
367.489
249.71
286.224
360.882
440.066
400.234
365.905
319.045
273.592
311.792
380.082
345.932
337.84
333.32
374.442
424.977
429.283
504.289
510.788
340.782
219.887
235.006
327.665
349.106
375.158
347.623
286.724
228.63
252.38
310.166
295.413
259.261
291.32
313.667
366.497
390.224
451.561
475.579
315.099
226.72
163.787
251.93
255.913
313.876
310.12
255.398
185.492
182.517
272.847
250.11
233.688
253.303
253.292
307.122
330.865
397.562
434.32
294.203
216.941
157.327
163.024
164.276
237.454
200.269
208.689
145.769
97.9977
225.433
205.443
169.979
206.115
208.45
260.938
296.195
352.397
384.405
246.987
174.91
112.859
87.0076
98.6815
183.347
133.528
158.003
114.609
59.3112
83.9833
97.5895
110.285
151.645
163.976
196.685
248.833
284.451
326.299
185.568
166.667
47.5024
54.0908
58.0647
69.8218
180.119
102.518
90.6256
55.7029
49.4914
54.3142
57.8901
84.799
107.15
146.069
207.448
241.402
287.209
596.766
605.275
603.385
600.999
609.997
596.289
554.989
553.848
492.675
473.969
427.244
396.573
348.385
279.008
141.515
106.573
195.864
303.392
303.249
343.05
349.039
374.853
340.229
456.254
462.827
494.49
505.145
476.32
496.937
457.497
427.165
354.604
351.092
240.113
151.889
93.1979
40.4576
-26.3136
144.708
161.109
174.747
200.888
220.164
197.064
189.348
200.551
334.021
349.435
362.128
395.785
365.459
348.29
359.154
315.979
226.888
125.038
58.7107
11.3105
7.59112
10.2664
15.8246
63.4526
81.7195
105.179
80.7952
99.1863
132.578
156.695
90.7473
181.45
223.902
279.612
313.14
290.997
303.022
188.82
180.289
103.486
29.5135
6.30113
2.95983
2.23339
3.19093
0.16701
8.39516
22.6545
21.758
18.8384
27.8481
55.857
81.5799
85.7766
95.5005
100.02
100.39
194.998
197.135
209.665
172.269
99.4434
40.8704
10.0214
2.00814
1.65376
1.73706
1.26069
0.297784
1.72094
2.52802
3.99711
4.37998
3.75619
9.32711
10.2384
35.5252
75.2866
64.1852
84.5953
136.053
211.343
142.673
96.4597
34.0811
6.66856
0.997324
0.878546
0.940975
1.05892
0.79633
0.490821
0.839308
1.30311
2.75705
3.34074
2.32959
2.65891
4.64498
26.6557
60.4902
43.8257
41.677
54.9867
101.157
68.0058
28.6289
3.11545
-1.3024
-1.09603
-0.143059
0.488531
0.46629
0.398194
0.223591
0.212452
0.360257
1.06543
1.21766
0.124026
-0.0455741
0.690073
8.09075
37.4709
23.4893
32.7027
46.3515
34.7394
20.3163
3.38426
-1.53802
-1.85927
-1.3437
-0.802245
-0.144718
-0.0245832
0.00212287
-0.202619
0.0121898
-0.139331
0.102328
-0.263391
-1.12339
-0.963438
-0.92696
-1.91363
25.7444
13.2258
14.8314
9.08243
3.88851
-0.806734
-1.25554
-1.80351
-1.93074
-1.51896
-1.12013
-0.591916
-0.552221
-0.515019
-0.55682
-0.651397
-0.658822
-0.407642
-0.929169
-4.46564
-2.426
-5.2103
10.1682
14.1286
9.22085
6.85855
1.60222
-0.916744
-1.31331
-1.44397
-1.6611
-2.01735
-1.65506
-1.30799
-1.29546
-1.30478
-1.15202
-1.40253
-1.54684
-1.21031
-1.18676
-3.13648
-6.90289
1.99341
-1.43114
-1.20308
8.17395
4.91494
-0.892375
-0.963913
-1.31942
-1.36941
-1.49072
-1.58555
-2.11876
-2.26766
-2.1513
-2.31092
-2.09644
-2.07527
-2.3784
-2.06545
-1.40021
-1.50328
-1.08509
1.17158
1.20897
-0.530233
-0.424623
0.641046
-0.827864
-0.0881942
-1.4699
-1.46885
-1.52217
-1.71161
-1.87104
-2.11228
-2.66118
-2.73734
-3.05039
-2.77907
-2.8458
-2.81846
-2.56496
-2.11299
-1.33586
0.0907528
0.857723
0.599004
0.0590522
-0.0197979
-3.56573
-3.16874
-1.83267
-1.74033
-1.75484
-1.77993
-1.86422
-1.99223
-2.16075
-2.47411
-2.93526
-3.53358
-3.37915
-3.46602
-3.09086
-2.84664
-2.70458
-1.83257
0.518692
1.09072
0.577908
0.14426
-0.2584
-3.4363
-2.91962
-2.33858
-2.22997
-2.0225
-1.7763
-2.10087
-2.47504
-2.7054
-2.98438
-3.29017
-3.93067
-3.77512
-3.82658
-3.50354
-3.1516
-3.00159
-1.71112
-0.142785
0.380794
0.0742527
-0.414797
-0.650168
-2.34247
-2.31696
-2.27212
-2.21732
-2.38219
-2.39848
-2.62258
-3.03294
-3.23938
-3.30538
-3.96194
-4.69165
-4.47594
-4.15941
-3.73368
-3.42912
-3.33218
-2.25929
-1.22124
-0.660776
-0.563896
-0.747196
-0.882145
-2.17367
-2.09629
-2.43774
-2.86419
-2.33132
-2.54034
-2.65184
-3.15725
-3.8097
-4.31898
-4.40349
-5.03057
-5.20032
-4.56882
-3.93005
-3.34727
-3.14381
-3.02758
-3.13375
-2.05714
-1.20987
-1.28546
-1.23405
-2.05553
-2.05848
-2.33926
-2.52702
-2.19998
-2.81651
-2.789
-3.09112
-3.81217
-4.67013
-5.14981
-5.40502
-5.56562
-5.00173
-4.08421
-3.29623
-2.9499
-3.23644
-3.8353
-3.51113
-2.18542
-1.70594
-1.58469
-1.89598
-1.89513
-2.03715
-2.11907
-1.85963
-2.74579
-2.83792
-3.07029
-3.85431
-4.56775
-5.13197
-5.10022
-5.20744
-4.99692
-4.04047
-2.79107
-2.72488
-2.88762
-2.87728
-2.94271
-2.34029
-1.8133
-1.73269
-1.79284
-1.76429
-1.92713
-2.27477
-3.2884
-3.16148
-3.13383
-3.71776
-4.15652
-4.20307
-3.99723
-4.37228
-4.19253
-4.31762
-4.19714
-3.12117
-2.65784
-2.34943
-2.54416
-2.51749
-2.21948
-2.00287
-1.95062
-1.76202
-1.82078
-1.88331
-2.08337
-2.87183
-3.00154
-2.63568
-3.69652
-3.50999
-3.1425
-3.37107
-3.76684
-3.93516
-3.87738
-3.92933
-3.19585
-2.37788
-1.99867
-2.07409
-2.1686
-2.21586
-2.08605
-2.16879
-2.05711
-2.16087
-2.15733
-2.30102
-3.37722
-3.12196
-2.82724
-2.62012
-2.55163
-2.90055
-3.20233
-3.49986
-3.61397
-3.37121
-3.31715
-2.25969
-2.05746
-1.89857
-1.96298
-2.19187
-2.25203
-2.24813
-2.22715
-2.17604
-2.98189
-2.31235
-2.02934
-2.32947
-2.56089
-2.59544
-2.47485
-2.67427
-2.97638
-3.12702
-3.34765
-3.55436
-3.10728
-2.22029
-1.97863
-1.93676
-1.93461
-2.13904
-2.32652
-2.35857
-2.41171
-2.42084
-2.48173
-3.49856
-1.93064
-2.42127
-2.70842
-2.70264
-2.65827
-2.50155
-2.89373
-2.91887
-3.11218
-3.67096
-3.21083
-2.71587
-2.20798
-2.10257
-2.11367
-2.10442
-2.32183
-2.50216
-2.60695
-2.63984
-2.59613
-2.30197
-2.79636
-1.77657
-2.39437
-2.45453
-2.6988
-3.04533
-1.95917
-3.37273
-3.62798
-3.27826
-3.75437
-3.52805
-3.28528
-2.81456
-2.42338
-2.85892
-2.51084
-2.62269
-2.76705
-2.86851
-2.86298
-2.8258
1.07018
-3.15684
-1.97467
-2.54495
-2.57224
-2.62936
-2.60837
-2.70704
-3.88773
-3.68765
-4.12598
-4.12901
-3.87718
-3.6976
-3.38352
-3.42073
-2.97119
-2.84873
-2.93128
-3.07827
-2.97191
-3.06222
-3.01182
0.286216
-4.72826
-2.00563
-2.17203
-2.84711
-2.71439
-4.36191
-4.70258
-4.9426
-5.29558
-4.89074
-4.27066
-4.11276
-4.1642
-3.83697
-3.98038
-3.42108
-3.21246
-3.25034
-3.32935
-3.33343
-3.28938
-3.24118
0.491792
-5.02327
-2.24711
-2.66271
-3.19567
-3.6186
-4.42883
-5.01907
-5.32977
-5.97631
-5.53351
-4.81928
-4.82782
-4.54915
-3.89673
-3.54087
-3.70519
-3.40682
-3.43391
-3.54112
-3.5681
-3.51305
-3.43726
3.7203
-1.69577
-2.37228
-2.97168
-3.62034
-4.15703
-4.67633
-5.20456
-5.87744
-5.96851
-5.49501
-5.3329
-4.98386
-4.73372
-4.42954
-4.2843
-4.65241
-3.94902
-3.71768
-3.78609
-3.65347
-3.68626
-3.68099
-1.14033
-3.29331
-2.83402
-3.25777
-3.78488
-4.26682
-4.809
-5.29929
-5.51623
-5.65227
-5.52736
-5.27931
-5.04495
-4.89116
-5.09821
-4.30451
-4.37673
-4.15742
-4.09952
-4.05624
-4.12247
-3.99506
-4.15067
-3.67142
-3.92411
-3.53134
-3.82159
-4.34485
-4.51547
-4.86697
-5.20651
-5.41884
-5.50793
-5.46795
-5.33872
-5.30519
-5.23168
-4.79743
-4.64935
-4.87241
-4.7843
-4.53525
-4.35785
-4.27733
-4.19081
-4.07741
-4.2573
-4.27485
-4.19444
-4.31614
-4.40238
-4.48741
-4.85251
-5.04713
-5.16042
-5.27239
-5.40484
-5.56008
-5.38593
-5.46082
-5.43887
-5.1233
-5.08866
-5.27749
-4.94871
-4.6792
-4.59893
-4.4187
-4.21928
-4.37498
-4.54104
-4.48447
-4.55192
-4.46311
-4.71169
-4.84693
-5.05604
-5.05717
-5.38628
-5.29151
-5.46942
-5.27204
-5.17602
-5.59484
-5.42544
-5.27315
-5.23844
-5.07187
-4.76517
-4.5104
-4.56004
-4.40783
-4.34904
-4.37847
-4.42683
-4.52633
-4.62147
-4.70577
-4.85255
-4.90218
-4.94329
-5.15106
-5.25227
-5.29093
-5.17958
-4.79995
-4.69287
-4.98198
-5.21536
-5.26142
-5.15989
-4.78836
-4.67601
-4.64011
-4.57766
-4.60895
-4.68062
-4.67999
-4.73291
-4.80833
-4.81145
-4.88111
-4.94595
-4.97096
-5.03264
-5.03376
-4.96422
-5.00083
-4.73175
-4.58574
-4.75493
-5.41962
-5.29825
-5.16811
-4.93536
-4.73729
-4.68902
-4.62773
-4.79565
-4.78421
-4.72063
-4.86149
-4.9623
-4.8864
-4.95083
-4.98671
-4.98925
-5.01648
-4.97751
-4.8419
-4.80981
-4.79691
-4.6291
-4.53038
-5.04361
-5.12742
-5.04433
-4.87807
-4.8791
-4.88179
-4.75934
-4.8878
-4.97777
-4.88181
-5.00225
-5.03518
-5.00198
-5.0923
-5.05904
-5.02115
-5.05174
-5.00059
-4.91338
-4.8375
-4.79105
-4.75893
-4.91634
-4.90338
-5.06542
-4.96106
-5.03515
-4.94349
-4.95831
-4.94459
-4.78704
-5.14692
-5.10826
-5.12377
-5.17811
-5.22397
-5.14721
-5.15445
-5.14188
-5.13341
-5.09216
-5.03987
-4.99939
-4.97586
-4.85088
-4.90102
-5.12887
-5.07098
-5.0526
-5.06618
-5.01519
-5.04285
-5.08257
-4.79719
-5.38428
-5.31692
-5.3488
-5.35547
-5.27942
-5.2959
-5.25345
-5.24148
-5.2203
-5.19206
-5.15335
-5.12652
-5.09725
-5.14278
-5.08332
-5.10744
-5.19776
-5.09353
-5.13974
-5.15128
-5.12493
-5.2153
-5.96621
-5.64965
-5.44251
-5.49117
-5.48597
-5.4076
-5.3863
-5.34041
-5.34537
-5.32522
-5.31125
-5.28317
-5.2575
-5.24963
-5.25456
-5.22536
-5.28447
-5.30667
-5.26447
-5.29539
-5.27506
-5.27392
-5.28474
-5.8939
-5.79747
-5.60799
-5.59381
-5.51061
-5.49765
-5.50052
-5.47266
-5.43297
-5.43645
-5.42055
-5.40648
-5.40208
-5.36689
-5.35978
-5.37117
-5.30841
-5.42264
-5.40981
-5.43633
-5.35823
-5.35634
-5.43469
-5.90962
-5.94249
-5.93997
-5.66959
-5.68032
-5.58431
-5.60068
-5.59165
-5.5969
-5.55319
-5.5658
-5.53405
-5.5443
-5.52216
-5.54681
-5.50602
-5.51817
-5.52405
-5.55855
-5.5308
-5.55106
-5.55009
-5.61202
-6.03847
-6.02431
-5.85042
-5.76465
-5.76188
-5.77464
-5.76302
-5.70477
-5.69055
-5.69361
-5.67093
-5.67331
-5.66238
-5.65581
-5.64867
-5.65853
-5.65537
-5.64304
-5.6679
-5.67814
-5.6586
-5.70269
-5.61203
289.561
290.782
258.938
233.334
178.372
154.929
141.895
130.322
127.27
98.1243
95.7264
85.0251
62.3018
54.7547
32.3153
23.3217
16.6374
4.68495
7.36845
6.91157
20.1611
5.89358
3.73774
2.57216
11.2735
3.42565
2.77515
2.49153
5.9238
3.44686
1.71185
1.6628
1.11683
0.329564
0.769283
1.01425
-0.978851
-0.680015
-0.139984
0.112084
-0.336676
-0.161283
-0.105365
-0.128494
-0.119888
-0.177888
-0.330608
-0.334177
-0.597963
-0.688577
-0.699851
-0.716786
-0.779877
-0.813715
-0.850957
-0.966321
-0.983341
-1.03404
-1.10125
-1.1161
-1.28922
-1.31386
-1.32129
-1.36766
-1.57503
-1.55647
-1.55823
-1.579
-1.73657
-1.71634
-1.73473
-1.72482
-1.96964
-1.92624
-1.91149
-1.93128
-2.17217
-2.13605
-2.16404
-2.14915
-2.24642
-2.29263
-2.34169
-2.3034
-2.4602
-2.44398
-2.41113
-2.45692
-2.65583
-2.66234
-2.69814
-2.6932
-2.82957
-2.85481
-2.85777
-2.91484
-2.97561
-3.01581
-3.03536
-3.02897
-3.31515
-3.26102
-3.2242
-3.21265
-3.42419
-3.40709
-3.35644
-3.34743
-3.71233
-3.70838
-3.73382
-3.72513
-3.87459
-3.97931
-3.80005
-3.82783
-4.01848
-4.02999
-4.02371
-4.03552
-4.19793
-4.17856
-4.16516
-4.14014
-4.40113
-4.33721
-4.32448
-4.29602
-4.55695
-4.52189
-4.48213
-4.44832
-4.61872
-4.63999
-4.61719
-4.61251
-4.77369
-4.78083
-4.77632
-4.78341
-4.88577
-4.88355
-4.86374
-4.8596
-5.02956
-4.98981
-5.00889
-4.97392
-5.20006
-5.18886
-5.18014
-5.1841
-5.2412
-5.26322
-5.24082
-5.27114
-5.40917
-5.37519
-5.39674
-5.38671
-5.51402
-5.53008
-5.50963
-5.5311
-5.6453
-5.65085
-5.68637
-5.71805
117.242
107.362
27.6695
33.8946
32.0249
39.3482
102.15
45.6533
51.6478
46.8008
39.985
39.4322
43.9548
45.3326
49.8259
58.9231
94.747
150.545
204.84
101.027
46.5862
16.8745
12.4498
30.5139
33.6468
53.1514
28.0467
34.8301
40.8754
37.0728
36.7704
35.8481
35.331
26.0138
35.3383
48.1718
51.9353
91.9142
51.5377
30.0693
15.9626
19.8272
26.3815
27.4143
20.6702
21.6557
24.1594
40.263
34.0416
33.7876
29.6202
22.3475
18.8257
19.9682
28.0947
39.9834
76.2632
17.8955
15.8327
7.47638
5.98455
30.2991
21.4641
19.1957
21.6603
20.8323
29.4795
21.7145
32.1668
23.0043
15.0581
11.9728
13.5869
16.8023
9.12601
43.0349
7.11854
5.71425
8.42106
15.8645
16.1527
16.6432
21.1004
21.0773
22.1549
23.21
9.15731
24.7596
10.927
8.77163
8.83447
8.87807
8.85893
8.18469
29.1851
3.62359
2.86767
2.15273
1.45116
2.95749
2.77937
4.91694
7.19688
14.0449
4.24446
5.37894
4.03532
2.12803
4.81842
6.02665
3.67661
5.33062
15.6478
24.9608
2.28904
2.60535
1.82246
1.66222
0.702292
1.87602
2.56739
1.08268
2.01461
0.82049
0.74499
-1.96497
0.65841
2.01396
3.83906
1.33014
1.48034
2.96395
9.1631
1.39587
1.76918
1.39798
0.768061
0.480125
0.820723
2.18109
0.383917
0.234349
-0.29267
0.14815
-1.34834
-1.34369
2.30991
1.27322
0.780519
0.736785
0.474013
0.692378
0.620388
0.807548
0.503071
0.34151
-0.011848
0.0779188
-0.262754
-0.192862
-0.450894
-0.328578
-0.278914
-0.0638613
-1.13862
2.20286
1.07948
0.545416
0.452206
0.354522
0.395377
-0.227916
0.463643
0.1206
-0.303323
-0.357043
-0.638543
-0.756063
-0.672083
-0.633442
-0.574075
-0.456129
-0.242641
0.0350283
-1.00376
-0.105534
0.328877
0.336863
0.135066
0.301299
-0.222783
-0.591422
-0.793353
-0.748688
-0.899644
-0.800807
-0.760292
-0.685928
-0.781771
-0.747855
-0.803921
-1.22212
-1.83064
-3.47789
-0.97391
-0.269625
-0.367964
-0.259484
0.104244
-0.555136
-0.890814
-1.1681
-1.08961
-1.11201
-1.01794
-0.972721
-1.05014
-0.950951
-0.946463
-0.996102
-1.42623
-1.68306
-2.33521
-1.2945
-0.585665
-0.859305
-0.607214
-0.0798021
-0.978495
-1.17276
-1.29968
-1.27301
-1.06117
-1.14269
-1.1064
-1.16597
-1.09178
-1.03609
-1.13369
-1.3486
-1.32467
-1.47596
-0.792775
-0.485384
-0.497539
-0.713826
-0.19321
-1.11235
-1.3044
-1.47512
-1.40982
-1.26561
-1.25356
-1.25293
-1.14797
-1.21695
-1.144
-1.1357
-1.12788
-1.09923
-0.845454
-0.488451
-0.249499
-0.401048
-0.605626
-0.278057
-1.18098
-1.30484
-1.45327
-1.44909
-1.4251
-1.39338
-1.38034
-1.3364
-1.35685
-1.30751
-1.30515
-1.36095
-1.18912
-0.886651
-0.488709
-0.734691
-0.725264
-1.0642
-0.336621
-1.39197
-1.45002
-1.53572
-1.52432
-1.52513
-1.51856
-1.50176
-1.48107
-1.48682
-1.44238
-1.43221
-1.4705
-1.46427
-1.47516
-1.36295
-1.34246
-1.53979
-1.54292
-1.64124
-1.54729
-1.59452
-1.70669
-1.62749
-1.6715
-1.65861
-1.64936
-1.63205
-1.63842
-1.60398
-1.62619
-1.63387
-1.58371
-1.64991
-1.70245
-1.69223
-1.75023
-1.98801
-1.62063
-1.74146
-1.76995
-1.81855
-1.79816
-1.81411
-1.82114
-1.80148
-1.78313
-1.75973
-1.72895
-1.7347
-1.74881
-1.75945
-1.79982
-1.78647
-1.89599
-1.90349
-2.00716
-2.0686
-1.9167
-1.94477
-1.97676
-1.96524
-1.95839
-1.96071
-1.96088
-1.93938
-1.92088
-1.9138
-1.88896
-1.88331
-1.9362
-1.90732
-2.00674
-2.01206
-2.02431
-2.00621
-2.08961
-2.06027
-2.07453
-2.1869
-2.14398
-2.14509
-2.12554
-2.09537
-2.06826
-2.06366
-2.06311
-2.02865
-2.03813
-2.08858
-2.09568
-2.24179
-2.14167
-2.11509
-2.10877
-2.06643
-2.39771
-2.37996
-2.27452
-2.30827
-2.30158
-2.26534
-2.27459
-2.3651
-2.22954
-2.24189
-2.236
-2.21498
-2.25677
-2.29845
-2.43938
-2.34514
-2.31328
-2.22429
-2.26322
-2.5267
-2.51131
-2.48498
-2.48799
-2.47663
-2.52631
-2.39848
-2.45664
-2.41619
-2.42029
-2.37043
-2.38748
-2.38447
-2.53485
-2.56697
-2.58825
-2.62754
-2.46991
-2.55765
-2.56165
-2.74328
-2.70153
-2.67618
-2.67411
-2.69628
-2.7653
-2.57003
-2.63453
-2.5762
-2.59985
-2.56175
-2.56891
-2.70148
-2.81367
-2.7439
-2.80605
-2.72406
-2.70259
-2.92853
-2.76968
-2.87409
-2.85949
-2.9151
-2.94708
-2.91443
-2.93872
-2.81221
-2.78049
-2.79699
-2.72151
-2.76085
-2.92061
-2.88265
-2.9462
-2.96501
-2.94856
-2.90327
-3.13975
-3.06488
-3.04799
-3.02224
-3.0044
-2.95415
-3.04571
-3.10766
-3.03072
-3.06619
-3.12698
-2.95368
-3.00871
-3.12448
-3.05921
-3.04876
-3.06152
-3.13783
-3.08464
-3.16309
-3.1862
-3.20819
-3.1918
-3.23652
-3.20901
-3.23789
-3.36317
-3.26247
-3.33511
-3.40318
-3.24651
-3.32172
-3.32081
-3.21453
-3.26753
-3.31097
-3.26596
-3.23778
-3.37079
-3.35597
-3.34453
-3.25958
-3.25057
-3.27972
-3.25027
-3.53658
-3.50927
-3.42823
-3.62561
-3.53357
-3.45591
-3.43202
-3.4575
-3.57269
-3.48047
-3.41032
-3.40424
-3.64873
-3.59294
-3.53792
-3.70373
-3.70151
-3.64901
-3.56531
-3.61685
-3.86203
-3.70811
-3.7279
-3.78828
-3.69449
-3.64883
-3.68201
-3.56187
-3.55864
-3.52508
-3.51524
-3.86164
-3.89668
-3.96899
-3.93002
-3.99474
-3.9303
-3.8
-3.87038
-3.96949
-4.033
-4.05096
-4.02604
-3.86235
-3.75349
-3.77773
-3.644
-3.67047
-3.66133
-3.66341
-4.0133
-3.99141
-4.00411
-4.01679
-3.93302
-3.94377
-4.05577
-4.08535
-4.30472
-4.24264
-4.27482
-4.20973
-4.06455
-4.02925
-3.83835
-3.81133
-3.82627
-3.8289
-3.79977
-4.12695
-4.19352
-4.22606
-4.28639
-4.21584
-4.29926
-4.61656
-4.39765
-4.4868
-4.44399
-4.39438
-4.3313
-4.24771
-4.09565
-3.96935
-3.88608
-3.9312
-3.9253
-3.92423
-4.23157
-4.26351
-4.28412
-4.19665
-4.28979
-4.39733
-4.64295
-4.56073
-4.57576
-4.66468
-4.58109
-4.52503
-4.4023
-4.23513
-4.06516
-4.19688
-4.13861
-4.1165
-4.09676
-4.4069
-4.40803
-4.24232
-4.37672
-4.4062
-4.50603
-4.45498
-4.75393
-4.74353
-4.86621
-4.79719
-4.72714
-4.57758
-4.35781
-4.36538
-4.2836
-4.29942
-4.28896
-4.23002
-4.6452
-4.5988
-4.68628
-4.53703
-4.57595
-4.56745
-4.57002
-4.75794
-4.83886
-5.00164
-4.88766
-4.77661
-4.55767
-4.49149
-4.41472
-4.4141
-4.40473
-4.47563
-4.41353
-4.78399
-4.74047
-4.78853
-4.73468
-4.69451
-4.63151
-4.8584
-4.81805
-4.8524
-4.90616
-5.08835
-4.7925
-4.82403
-4.6123
-4.61844
-4.69522
-4.69955
-4.66343
-4.65078
-4.85124
-4.85372
-4.74823
-4.85929
-4.79706
-5.06501
-4.97272
-4.99758
-4.98685
-4.83047
-5.01157
-4.98758
-4.93161
-4.85851
-4.88837
-4.93777
-4.86997
-4.9866
-4.85647
-4.95546
-4.96158
-4.94099
-4.95024
-5.00138
-5.02551
-4.94229
-4.96671
-4.9768
-5.08616
-5.01067
-5.10342
-5.03722
-5.03283
-5.00296
-5.05779
-5.01644
-4.9791
-4.9551
-5.22054
-5.11787
-5.06315
-5.01374
-5.07218
-5.00713
-5.07005
-5.05449
-5.03448
-5.11203
-5.16718
-5.18468
-5.21633
-5.17368
-5.16119
-5.13914
-5.14283
-5.10769
-5.02689
-5.26157
-5.27719
-5.17224
-5.31737
-5.21153
-5.20116
-5.22216
-5.18037
-5.28154
-5.19174
-5.28266
-5.30869
-5.35376
-5.34106
-5.28623
-5.29272
-5.24729
-5.274
-5.28494
-5.3681
-5.41803
-5.46352
-5.41288
-5.3918
-5.43843
-5.32309
-5.39526
-5.28439
-5.35296
-5.3489
-5.40099
-5.40506
-5.45816
-5.37552
-5.36483
-5.35736
-5.37961
-5.41548
-5.50363
-5.52649
-5.58177
-5.59666
-5.52438
-5.54624
-5.54873
-5.52045
-5.49272
-5.49142
-5.49213
-5.52273
-5.5159
-5.57425
-5.57011
-5.53509
-5.46597
-5.4992
-5.47238
-5.69659
-5.74308
-5.70728
-5.69128
-5.75192
-5.69552
-5.66683
-5.65689
-5.64658
-5.65723
-5.64664
-5.66517
-5.67238
-5.67405
-5.68242
-5.70471
-5.69909
-5.65069
-5.6472
)
;

boundaryField
{
    leftWall
    {
        type            calculated;
        value           nonuniform List<scalar> 
50
(
1102.25
1043.68
984.624
925.897
866.92
807.319
749.068
687.901
596.766
456.254
334.021
181.45
95.5005
75.2866
60.4902
37.4709
25.7444
14.1286
8.17395
0.641046
-3.56573
-3.4363
-2.34247
-2.17367
-2.05553
-1.89598
-1.79284
-1.76202
-2.05711
-2.17604
-2.48173
-2.30197
1.07018
0.286216
0.491792
3.7203
-1.14033
-3.67142
-4.2573
-4.37498
-4.34904
-4.60895
-4.79565
-4.8878
-4.78704
-4.79719
-5.96621
-5.8939
-5.90962
-6.03847
)
;
    }
    rightWall
    {
        type            calculated;
        value           nonuniform List<scalar> 
50
(
607.003
553.739
510.788
475.579
434.32
384.405
326.299
287.209
204.84
91.9142
76.2632
43.0349
29.1851
24.9608
9.1631
0.692378
0.395377
0.301299
0.104244
-0.0798021
-0.19321
-0.278057
-0.336621
-1.64124
-1.62063
-2.0686
-2.08961
-2.06643
-2.26322
-2.55765
-2.70259
-2.90327
-3.08464
-3.23778
-3.40424
-3.51524
-3.66341
-3.79977
-3.92423
-4.09676
-4.23002
-4.41353
-4.65078
-4.85647
-4.9551
-5.02689
-5.28494
-5.41548
-5.47238
-5.6472
)
;
    }
    lowerWall
    {
        type            calculated;
        value           nonuniform List<scalar> 
62
(
1131.68
1130.68
1129.44
1120.83
1116.53
1093.03
1077.91
1053.26
1035.15
1008.39
988.773
945.335
899.268
863.377
825.317
824.428
813.207
840.694
846.888
863.384
868.871
880.403
878.355
848.925
790.308
732.129
673.253
615.252
557.896
498.631
439.953
351.363
353.093
321.494
295.904
537.89
464.645
367.489
340.782
315.099
294.203
246.987
185.568
566.646
435.842
438.851
530.322
579.234
541.418
476.935
434.449
414.663
463.43
532.088
489.861
459.835
476.789
502.794
550.366
588.014
637.598
636.093
)
;
    }
    atmosphere
    {
        type            calculated;
        value           nonuniform List<scalar> 
46
(
-5.81806
-5.95151
-6.29532
-5.89484
-5.79587
-5.78734
-5.77004
-5.7634
-5.7521
-5.73967
-5.73477
-5.72984
-5.73025
-5.72933
-5.73663
-5.73309
-5.7336
-5.72904
-5.73852
-5.73933
-5.73015
-5.7643
-5.74696
-5.73818
-5.74931
-5.76218
-5.7771
-5.76954
-5.80073
-5.81372
-5.81316
-5.80764
-5.79388
-5.77219
-5.75435
-5.73844
-5.73185
-5.72951
-5.73153
-5.72906
-5.74153
-5.73777
-6.09809
-5.7903
-5.72925
-5.72904
)
;
    }
    defaultFaces
    {
        type            empty;
    }
}


// ************************************************************************* //
