/*--------------------------------*- C++ -*----------------------------------*\
| =========                 |                                                 |
| \\      /  F ield         | foam-extend: Open Source CFD                    |
|  \\    /   O peration     | Version:     4.1                                |
|   \\  /    A nd           | Web:         http://www.foam-extend.org         |
|    \\/     M anipulation  |                                                 |
\*---------------------------------------------------------------------------*/
FoamFile
{
    version     2.0;
    format      ascii;
    class       surfaceScalarField;
    location    "0.95";
    object      phi_0;
}
// * * * * * * * * * * * * * * * * * * * * * * * * * * * * * * * * * * * * * //

dimensions      [0 3 -1 0 0 0 0];

internalField   nonuniform List<scalar> 
4432
(
-2.58154e-06
2.58154e-06
-4.397e-06
1.81546e-06
-5.82043e-06
1.42343e-06
-4.57497e-06
-1.24546e-06
-7.00787e-06
2.4329e-06
-9.91615e-06
2.90829e-06
-1.05012e-05
5.85083e-07
-9.73963e-06
-7.61607e-07
-6.09052e-06
-3.64911e-06
-5.6439e-06
-4.46624e-07
-1.86023e-06
-3.78368e-06
4.57366e-06
-6.43388e-06
9.83837e-06
-5.26472e-06
1.2321e-05
-2.48261e-06
1.42909e-05
-1.96996e-06
1.66748e-05
-2.38384e-06
1.37405e-05
2.93425e-06
1.03225e-05
3.418e-06
7.09333e-06
3.22921e-06
4.37595e-06
2.71737e-06
1.6155e-06
2.76045e-06
2.15256e-06
-5.37066e-07
2.15256e-06
-9.31593e-07
3.51313e-06
-1.33851e-06
2.22237e-06
-2.86358e-06
2.9485e-06
-4.81005e-06
7.01005e-07
-6.68098e-06
4.30383e-06
-9.37582e-06
5.60312e-06
-9.79724e-06
1.00651e-06
-8.22241e-06
-2.33644e-06
-1.11981e-05
-6.73381e-07
-7.58922e-06
-4.05554e-06
-1.52247e-06
-9.85043e-06
2.24188e-06
-1.01982e-05
5.7607e-06
-8.78353e-06
8.29426e-06
-5.01617e-06
1.20891e-05
-5.76479e-06
7.54897e-06
2.15629e-06
9.63846e-06
8.44752e-07
6.72385e-06
6.33261e-06
4.9513e-06
5.00177e-06
3.33176e-06
4.3369e-06
5.75607e-07
5.5166e-06
9.14545e-07
-8.76007e-07
3.06711e-06
-2.0306e-06
5.54374e-06
-4.76021e-06
4.95198e-06
-8.02112e-06
6.2094e-06
-1.17384e-05
4.41827e-06
-1.51991e-05
7.7646e-06
-1.05018e-05
9.05763e-07
-1.10273e-05
1.53204e-06
-1.01322e-05
-3.23159e-06
-1.76342e-05
6.82868e-06
-6.9129e-06
-1.47769e-05
-8.08318e-06
-8.68015e-06
-1.37539e-06
-1.6906e-05
1.84174e-06
-1.20007e-05
6.2785e-06
-9.45294e-06
1.01004e-05
-9.58669e-06
5.50648e-06
6.75021e-06
4.88538e-06
1.46585e-06
3.0281e-06
8.18989e-06
1.85441e-06
6.17545e-06
5.35815e-07
5.6555e-06
-9.79044e-07
7.03146e-06
9.27847e-07
-2.7829e-06
3.99495e-06
-2.33414e-06
7.87787e-06
-4.94354e-06
7.56138e-06
-4.27756e-06
5.54343e-06
-5.31179e-06
5.4525e-06
-7.48836e-06
9.94117e-06
-1.06163e-05
4.03367e-06
-1.1113e-05
2.02878e-06
-2.16764e-05
7.33182e-06
-1.1835e-05
-3.01269e-06
-1.89863e-05
-7.62558e-06
-1.38742e-05
-1.37923e-05
-7.04552e-06
-2.37347e-05
6.73518e-07
-1.97197e-05
6.95383e-06
-1.57332e-05
1.05933e-05
-1.32262e-05
9.67747e-06
7.66606e-06
4.97102e-07
1.06462e-05
-3.6638e-06
1.23508e-05
-1.88846e-06
4.40011e-06
-2.50731e-06
6.27435e-06
-2.30569e-06
6.82984e-06
1.55794e-06
-6.64653e-06
5.55289e-06
-2.55178e-06
1.04297e-05
-3.65618e-06
8.66578e-06
-6.54124e-06
8.42848e-06
-1.11381e-05
1.00494e-05
-9.09406e-06
7.89713e-06
-1.31324e-05
8.07202e-06
-1.33756e-05
2.27194e-06
-1.37944e-05
7.75063e-06
-1.34253e-05
-3.38179e-06
-2.15509e-05
5.00017e-07
-1.87274e-05
-1.66158e-05
-1.26265e-05
-2.98356e-05
-6.34183e-07
-3.1712e-05
8.86368e-06
-2.52311e-05
1.20947e-05
-1.64572e-05
1.0342e-05
9.41871e-06
-1.12213e-07
2.11005e-05
-8.37906e-06
2.06176e-05
-9.15801e-06
5.17907e-06
-7.04549e-06
4.16182e-06
-6.71484e-06
6.49919e-06
-1.67497e-07
-1.31939e-05
5.3854e-06
-1.82476e-06
1.22544e-05
-6.02795e-06
1.2869e-05
-8.906e-06
1.13065e-05
-1.2439e-05
1.35824e-05
-9.4359e-06
4.89405e-06
-1.28083e-05
1.14445e-05
-1.36462e-05
3.10983e-06
-1.48558e-05
8.9602e-06
-2.90674e-05
1.08299e-05
-2.64512e-05
-2.11618e-06
-2.33257e-05
-1.97413e-05
-1.53374e-05
-3.78239e-05
-5.24889e-06
-4.18005e-05
2.49833e-06
-3.29783e-05
9.36687e-06
-2.33257e-05
8.76314e-06
1.00224e-05
-5.6107e-06
3.54743e-05
-1.42519e-05
2.92589e-05
-1.44801e-05
5.40719e-06
-1.32153e-05
2.89707e-06
-5.76874e-06
-9.47368e-07
-2.24484e-07
-1.87381e-05
5.16092e-06
-2.76625e-06
1.50207e-05
-4.76128e-06
1.4864e-05
-4.71025e-06
1.12555e-05
-6.40877e-06
1.52809e-05
-9.3146e-06
7.79988e-06
-1.49402e-05
1.707e-05
-2.9263e-05
1.74327e-05
-3.06478e-05
1.0345e-05
-3.14732e-05
1.16553e-05
-3.18085e-05
-1.78089e-06
-3.57947e-05
-1.57552e-05
-2.8952e-05
-4.46666e-05
-1.57734e-05
-5.49791e-05
-8.34226e-06
-4.04094e-05
-6.12931e-08
-3.16067e-05
2.38553e-06
7.57563e-06
-9.23517e-06
4.7095e-05
-1.89323e-05
3.8956e-05
-2.03291e-05
6.80399e-06
-1.78473e-05
4.15232e-07
-1.13288e-05
-7.46585e-06
1.22257e-06
-3.12895e-05
6.38349e-06
-1.40898e-06
1.64296e-05
-6.69894e-06
2.0154e-05
-1.25197e-05
1.70762e-05
-1.90188e-05
2.178e-05
-2.48184e-05
1.35995e-05
-1.60575e-05
8.30915e-06
-1.60367e-05
1.74119e-05
-3.25957e-05
2.6904e-05
-3.76412e-05
1.67008e-05
-4.17094e-05
2.28731e-06
-4.88572e-05
-8.6074e-06
-4.79289e-05
-4.55949e-05
-3.90424e-05
-6.38656e-05
-1.78433e-05
-6.16086e-05
-1.67988e-05
-3.26513e-05
-8.08733e-06
-1.1358e-06
-1.27284e-05
5.17361e-05
-1.18817e-05
3.81093e-05
-2.17772e-05
1.66995e-05
-1.90824e-05
-2.27961e-06
-1.40704e-05
-1.24778e-05
1.50395e-06
-4.68638e-05
7.88744e-06
-3.78556e-05
3.78556e-05
-4.99195e-05
1.2064e-05
-4.28093e-05
-7.11023e-06
-2.93816e-05
-1.34277e-05
-3.0342e-05
9.60333e-07
-4.30067e-05
1.26648e-05
-5.43161e-05
1.13094e-05
-5.63905e-05
2.07443e-06
-4.55518e-05
-1.08387e-05
-1.99051e-05
-2.56467e-05
4.74371e-06
-2.46488e-05
9.69233e-06
-4.94863e-06
2.44555e-07
9.44779e-06
-2.53635e-06
2.7809e-06
1.1897e-06
-3.72604e-06
3.71937e-06
-2.52968e-06
1.87873e-06
1.84064e-06
1.35853e-07
1.74288e-06
1.35855e-07
-2.91673e-05
6.70229e-05
-3.55061e-05
1.84028e-05
-1.79043e-05
-2.47121e-05
1.00806e-05
-4.14126e-05
1.18714e-05
-8.30477e-07
-5.19601e-06
2.97322e-05
-1.82312e-05
2.43446e-05
-4.31764e-05
2.70197e-05
-3.7464e-05
-1.65511e-05
-1.64736e-05
-4.66372e-05
1.61004e-05
-5.72228e-05
1.70702e-05
-5.9185e-06
2.80681e-05
-1.55013e-06
2.0559e-05
1.02901e-05
1.1874e-05
4.95896e-06
2.6148e-05
-1.68038e-05
7.46349e-06
2.05252e-05
-4.20664e-08
9.24843e-06
9.37896e-08
-7.60754e-06
7.46304e-05
-2.80004e-06
1.35953e-05
9.44982e-06
-3.69619e-05
2.52671e-05
-5.72298e-05
2.45712e-05
-1.34601e-07
1.01249e-05
4.41785e-05
-8.33738e-06
4.28069e-05
-2.76477e-05
4.633e-05
-3.08327e-05
-1.3366e-05
-1.51986e-05
-6.22713e-05
1.76136e-05
-9.0035e-05
3.2723e-05
-2.10279e-05
1.65005e-05
1.46724e-05
2.82696e-05
-1.47907e-06
2.98458e-05
3.38276e-06
1.78241e-05
-4.78208e-06
1.83668e-05
1.99825e-05
3.11699e-06
2.44983e-05
3.21078e-06
1.41711e-05
6.04593e-05
3.65966e-05
-8.83011e-06
4.13886e-05
-4.1754e-05
4.36941e-05
-5.95353e-05
2.95018e-05
1.40576e-05
1.69467e-05
5.67336e-05
6.81127e-06
5.29423e-05
-4.54655e-06
5.76878e-05
-1.57368e-05
-2.17582e-06
-2.83745e-06
-7.51707e-05
1.53584e-05
-0.000108231
2.1553e-05
-2.72225e-05
3.65204e-05
-2.95085e-07
2.83094e-05
6.73195e-06
2.56568e-05
6.03533e-06
1.61331e-05
4.74168e-06
2.23201e-05
1.37955e-05
1.31701e-05
3.36482e-05
1.63809e-05
3.01362e-05
3.03231e-05
2.91033e-05
-7.79725e-06
4.89471e-05
-6.15978e-05
4.83799e-05
-5.89681e-05
2.67059e-05
3.57317e-05
1.14293e-05
7.20103e-05
3.0178e-06
6.13537e-05
-7.74783e-06
6.84535e-05
-6.26509e-06
-3.65857e-06
3.3385e-06
-8.47742e-05
9.49321e-06
-0.000114385
3.10781e-05
-4.88074e-05
4.3586e-05
-1.2803e-05
3.74292e-05
1.28888e-05
3.04621e-05
1.30024e-05
1.75772e-05
1.76266e-05
1.13286e-05
2.00441e-05
1.05246e-05
3.44522e-05
2.69056e-05
2.93521e-05
9.71005e-07
2.96068e-05
-8.05197e-06
5.72786e-05
-8.92696e-05
5.3398e-05
-5.50875e-05
2.92664e-05
5.98632e-05
1.35069e-05
8.77697e-05
1.14867e-06
7.3712e-05
-5.82812e-06
7.54303e-05
1.34679e-06
-1.08335e-05
6.29372e-06
-8.97212e-05
8.42139e-06
-0.000116513
1.897e-05
-5.93561e-05
3.10113e-05
-2.48442e-05
3.96949e-05
4.20518e-06
3.41902e-05
1.85071e-05
1.68834e-05
3.49334e-05
2.5374e-05
1.15534e-05
1.6787e-05
4.30392e-05
4.36926e-05
3.41769e-05
-3.32059e-05
5.47997e-05
-2.86748e-05
5.7723e-05
-9.21929e-05
4.31231e-05
-4.04876e-05
1.19386e-05
9.10478e-05
1.94782e-05
8.02301e-05
9.75454e-07
9.22147e-05
-6.13986e-06
8.25456e-05
1.45364e-05
-3.15098e-05
2.05006e-05
-9.56853e-05
4.37688e-06
-0.000100389
5.72882e-06
-6.0708e-05
3.22078e-05
-5.13232e-05
4.79314e-05
-1.15184e-05
4.50537e-05
2.13848e-05
3.54502e-05
4.45369e-05
1.42057e-05
3.2798e-05
1.06773e-05
4.65675e-05
5.43699e-05
2.07013e-05
-5.39072e-05
6.20708e-05
-7.00442e-05
3.13539e-05
-6.1476e-05
3.58314e-05
-4.49651e-05
6.13443e-06
0.000120745
2.45719e-06
8.39074e-05
-2.67286e-06
9.73447e-05
-5.15077e-06
8.50235e-05
3.26274e-05
-6.9288e-05
1.71248e-05
-8.01827e-05
1.98609e-05
-0.000103126
2.42508e-05
-6.50979e-05
1.86353e-05
-4.57076e-05
2.28494e-05
-1.57325e-05
1.97205e-05
2.45137e-05
2.84753e-05
3.57821e-05
2.52993e-05
3.59739e-05
1.20976e-05
5.97693e-05
6.64675e-05
-2.22174e-06
1.86514e-05
-1.58321e-06
1.95154e-05
-1.4435e-05
2.9928e-05
-2.55285e-05
3.28735e-05
-5.07486e-05
3.88196e-05
-5.74239e-05
1.49845e-05
-7.00373e-05
3.00253e-05
-7.89592e-05
3.5826e-05
-0.000102002
3.97431e-05
-0.000121169
2.14548e-05
-0.000138868
9.09174e-06
-0.000143799
-4.06643e-05
-0.000144945
-6.27189e-05
-0.000136585
-6.99693e-05
-0.00013284
-3.63965e-05
-9.86454e-05
-3.533e-05
-6.05072e-05
1.3598e-05
-4.66839e-05
2.4286e-05
-5.55923e-05
2.56079e-05
-4.61566e-05
-1.17152e-05
-1.80783e-05
-4.05562e-05
-5.98049e-06
-5.89616e-05
-4.10567e-05
4.29637e-05
-3.57262e-06
2.2224e-05
-2.14741e-05
3.74169e-05
-1.49261e-05
2.338e-05
-2.46056e-05
4.2553e-05
-3.27427e-05
4.69567e-05
-6.07001e-05
4.29419e-05
-6.74513e-05
3.67765e-05
-8.14559e-05
4.98306e-05
-0.000102413
6.06998e-05
-0.0001204
3.94418e-05
-0.00016585
5.45417e-05
-0.000199004
-7.51024e-06
-0.000210605
-5.11179e-05
-0.000209653
-7.09213e-05
-0.000123553
-0.000122496
-0.000136021
-2.28613e-05
-9.75086e-05
-2.49149e-05
-7.55489e-05
2.32636e-06
-4.67813e-05
-3.1597e-06
-2.58556e-05
-3.2641e-05
-2.6361e-05
-4.00508e-05
-4.36426e-05
-4.168e-05
-6.44917e-05
-2.02076e-05
-3.05587e-06
2.52799e-05
-5.25323e-06
3.96143e-05
-3.34999e-05
5.16267e-05
-4.49523e-05
5.40055e-05
-3.36778e-05
3.56822e-05
-3.93191e-05
4.85832e-05
-6.34393e-05
6.08966e-05
-7.14563e-05
5.78476e-05
-4.70996e-05
3.63431e-05
-0.000113909
0.000106251
-0.000179552
0.000120185
-0.00023801
5.09479e-05
-0.000227951
-6.11767e-05
-0.000227059
-7.18141e-05
-0.000212455
-0.0001371
-0.000157087
-7.823e-05
-0.000113279
-6.87231e-05
-8.62779e-05
-2.46743e-05
-3.81775e-05
-5.12601e-05
-2.84557e-05
-4.23628e-05
-3.67116e-05
-3.17948e-05
-2.3675e-05
-5.47167e-05
-5.237e-05
-3.57967e-05
-8.58554e-06
3.38654e-05
-1.34618e-05
4.44905e-05
-8.49793e-06
4.66628e-05
-3.09927e-05
7.65003e-05
-4.60356e-05
5.07251e-05
-5.06472e-05
5.31947e-05
-3.82222e-05
4.84716e-05
-3.71554e-05
5.67808e-05
-7.60276e-05
7.52153e-05
-8.88598e-05
0.000119083
-0.000137798
0.000169123
-0.000182468
9.56176e-05
-0.000210649
-3.29949e-05
-0.000186093
-9.6371e-05
-0.000127771
-0.000195421
-9.04308e-05
-0.00011557
-0.000102301
-5.68524e-05
-7.43452e-05
-5.26305e-05
-6.27375e-05
-6.28678e-05
-5.27812e-05
-5.23192e-05
-5.23499e-05
-3.22261e-05
-6.95784e-05
-3.74881e-05
-2.50988e-05
-9.68495e-05
-3.84266e-06
3.77081e-05
4.4422e-06
3.62056e-05
2.34762e-06
4.87574e-05
-1.08595e-05
8.97074e-05
-5.93709e-05
9.92365e-05
-6.40132e-05
5.7837e-05
-6.40497e-05
4.85081e-05
-6.2587e-05
5.5318e-05
-4.84459e-05
6.10743e-05
-2.98553e-05
0.000100493
-5.17895e-05
0.000191057
-8.92851e-05
0.000133113
-0.000122745
4.64464e-07
-0.000112064
-0.000107052
-0.000158646
-0.000148839
-0.000222042
-5.21741e-05
-0.000198443
-8.0452e-05
-0.000136094
-0.000114979
-0.000101191
-9.77713e-05
-8.48225e-05
-6.86877e-05
-5.86974e-05
-5.83512e-05
-5.76733e-05
-3.85123e-05
-1.37674e-05
-6.90047e-05
5.53405e-05
-1.76324e-05
2.45653e-06
8.90896e-05
-1.90665e-05
7.02805e-05
-4.09628e-05
0.000111604
-6.34121e-05
0.000121686
-7.25529e-05
6.69778e-05
-7.11422e-05
4.70975e-05
-4.69086e-05
3.10844e-05
-9.60932e-06
2.3775e-05
-1.98568e-05
0.00011074
-4.05267e-05
0.000211727
-0.000126202
0.000218789
-0.000142711
1.6973e-05
-0.000189897
-5.98661e-05
-0.000247252
-9.14831e-05
-0.000236156
-6.32697e-05
-0.00013295
-0.000183658
-5.75848e-05
-0.000190344
-6.66799e-07
-0.000154689
-4.41032e-05
-2.52512e-05
-7.26467e-05
-2.98077e-05
-5.80705e-05
-5.30884e-05
-2.7347e-05
-4.44909e-05
6.01077e-05
-7.77401e-05
1.30756e-05
0.000136122
-7.46292e-05
0.000157985
-9.71594e-05
0.000134134
-0.00010759
0.000132117
-9.78043e-05
5.71919e-05
-6.5013e-05
1.43062e-05
-8.42751e-06
-2.55011e-05
-2.73347e-05
4.26822e-05
-9.53293e-05
0.000178735
-0.000139107
0.000255504
-0.000113011
0.000192693
-0.000125268
2.92295e-05
-0.000174192
-1.09417e-05
-0.000191511
-7.41638e-05
-0.00015894
-9.58406e-05
-0.000129553
-0.000213045
-7.99639e-05
-0.000239933
8.63165e-06
-0.000243285
3.85119e-05
-5.51314e-05
2.56017e-06
6.14399e-06
-2.55952e-05
-2.49331e-05
-1.0114e-05
-4.28283e-05
7.25001e-06
-8.49901e-05
-9.91138e-05
0.000242486
-0.000106304
0.000165175
-0.00014735
0.00017518
-0.000137622
0.000122389
-9.64853e-05
1.60551e-05
-6.54384e-05
-1.67407e-05
-7.54188e-05
-1.55207e-05
-0.000172174
0.000139438
-0.000213975
0.000220536
-0.000207629
0.000249159
-0.000160105
0.000145169
-0.000173157
4.22815e-05
-0.000194974
1.08753e-05
-0.000211926
-5.72113e-05
-0.000152512
-0.000155255
-0.000131945
-0.000233612
-0.00010809
-0.000263788
-9.10299e-05
-0.000260345
-1.66641e-05
-0.000129497
-5.78813e-06
-4.73191e-06
-2.94645e-05
-1.25664e-06
2.45294e-06
-4.20315e-05
-2.26639e-05
-6.23262e-05
-0.000119464
0.000339286
-0.00013874
0.000184451
-0.000145628
0.000182068
-0.000126662
0.000103423
-0.000108401
-2.20637e-06
-0.000143173
1.80317e-05
-0.000245459
8.67655e-05
-0.000297175
0.000191153
-0.000284269
0.000207629
-0.000257244
0.000222133
-0.000221495
0.000109421
-0.000236275
5.70614e-05
-0.000235009
9.60862e-06
-0.000220875
-7.13449e-05
-0.000197627
-0.000178503
-0.000174125
-0.000257114
-0.000150426
-0.000287487
-0.000160841
-0.000249929
-0.000157963
-0.000132376
-9.2162e-05
-7.0533e-05
-5.89085e-05
-3.45102e-05
-2.11416e-05
-3.5314e-05
-2.0476e-05
-4.18502e-05
-7.08925e-05
0.000389702
-0.000103376
0.000216935
-0.000101147
0.000179839
-9.80642e-05
0.00010034
-0.000154425
5.41547e-05
-0.000248737
0.000112344
-0.000277077
0.000115105
-0.000310538
0.000224614
-0.000287271
0.000184363
-0.000238293
0.000173154
-0.000255726
0.000126854
-0.000280794
8.21297e-05
-0.000273693
2.50736e-06
-0.000279905
-6.51329e-05
-0.000238476
-0.000219932
-0.000191927
-0.000303664
-0.000154034
-0.00032538
-0.000115672
-0.000288291
-0.000123789
-0.000124259
-0.000166284
-2.80379e-05
-0.000166697
-3.40974e-05
-3.94897e-05
-0.000148349
3.73797e-06
-4.55882e-05
1.21274e-05
0.000381313
-0.000118836
0.000347898
-0.000113955
0.000174958
-0.00012207
0.000108455
-0.00016889
0.000100975
-0.000218169
0.000161622
-0.000224935
0.000121872
-0.000256946
0.000256624
-0.000261789
0.000189207
-0.000251274
0.00016264
-0.000313356
0.000188936
-0.000309332
7.81051e-05
-0.000293859
-1.29657e-05
-0.000175971
-0.000183021
-0.000170452
-0.000225451
-0.000196685
-0.000277431
-0.000182657
-0.000339409
-0.000158569
-0.000312378
-0.000191705
-9.11228e-05
-0.000166525
-5.3218e-05
-0.000155535
-4.50877e-05
-5.40991e-05
-0.000140925
5.75773e-06
-5.13459e-05
4.34454e-06
0.000382726
-3.42694e-05
0.000386512
-5.96291e-05
0.000200317
-8.42112e-05
0.000133037
-5.82424e-05
7.5006e-05
-8.90738e-05
0.000192453
-0.000223288
0.000256086
-0.000229124
0.00026246
-0.000287956
0.000248039
-0.000329576
0.00020426
-0.000212938
7.22982e-05
-0.000167452
3.26187e-05
-0.000129703
-5.07145e-05
-0.000210926
-0.000101798
-0.000202486
-0.000233891
-0.000207691
-0.000272226
-0.00023307
-0.00031403
-0.000241997
-0.000303451
-0.000192733
-0.000140387
-0.000169857
-7.60939e-05
-8.87811e-05
-0.000126164
-7.23254e-05
-7.05547e-05
-8.38904e-06
-4.29568e-05
-6.50038e-06
0.000380837
-2.62641e-05
0.000406276
-5.38988e-05
0.000227952
-7.15593e-05
0.000150698
-0.000122257
0.000125704
-0.000165953
0.000236149
-0.000202828
0.000292961
-0.000228714
0.000288347
-0.000238931
0.000258255
-0.000233753
0.000199082
-0.000254294
9.2839e-05
-0.000181163
-4.05121e-05
-0.00015399
-7.78878e-05
-5.07231e-05
-0.000205065
-3.7736e-05
-0.000246878
-3.29183e-06
-0.00030667
-4.00719e-05
-0.00027725
-0.000122219
-0.000221304
-9.75515e-05
-0.000165055
-5.10038e-05
-0.000122642
-6.8556e-05
-0.000108612
-9.73513e-05
-4.35301e-05
-3.29333e-05
-1.00235e-05
-2.0108e-05
0.000368012
-2.04817e-05
0.000406649
-3.46631e-05
0.000242134
-6.28031e-05
0.000178838
-3.9394e-05
0.000102294
-0.000115287
0.000312042
-0.000165835
0.000343509
-0.000185864
0.000308376
-0.000177848
0.000250239
-0.000100982
0.000122216
-0.000123098
0.000114954
-0.000124621
-3.89888e-05
-8.6718e-05
-0.000115791
-2.95838e-05
-0.0002622
3.57393e-05
-0.0003122
7.20751e-05
-0.000343006
7.24259e-05
-0.0002776
4.55558e-05
-0.000194434
3.44044e-05
-0.000153903
7.15182e-06
-9.5389e-05
-5.36149e-05
-4.78448e-05
-5.65794e-05
-9.43868e-05
-3.90283e-05
2.90048e-05
-2.22627e-05
0.000351246
-1.70476e-05
0.000401435
2.71962e-06
0.000222366
-1.00336e-05
0.000191591
-3.0397e-05
0.000122658
-5.49168e-05
0.000336562
-8.18514e-05
0.000370444
-0.00014001
0.000366535
-0.000102688
0.000212917
-0.0001911
0.000210628
-0.000147747
7.1602e-05
-0.000163885
-2.28511e-05
-4.78496e-05
-0.000231826
-5.8555e-06
-0.000304194
5.54223e-05
-0.000373478
8.43512e-05
-0.000371935
8.82797e-05
-0.000281529
7.20718e-05
-0.000178226
6.25296e-05
-0.000144361
5.3064e-06
-3.81658e-05
-2.35238e-05
-1.90145e-05
-3.82333e-05
-4.187e-05
-2.80037e-05
5.70084e-05
-6.13194e-07
0.000323856
2.49629e-05
0.000375859
-4.53021e-06
0.00025186
-1.0527e-05
0.000197588
-2.97412e-05
0.000141872
-4.50224e-05
0.000351843
-4.53238e-05
0.000370745
-4.33294e-05
0.00036454
-7.17808e-05
0.000241368
-4.00218e-05
0.000178869
-8.33062e-05
0.000114886
-3.77536e-05
-6.84036e-05
-4.1516e-06
-0.000265428
1.51556e-05
-0.000323501
3.59096e-05
-0.000394232
5.59586e-05
-0.000391984
8.78557e-05
-0.000313426
0.000127365
-0.000217735
5.2049e-05
-6.90454e-05
2.91918e-05
-1.53086e-05
-2.60362e-06
1.2781e-05
-1.46476e-05
-2.61894e-05
-2.56372e-05
8.26457e-05
6.13311e-06
0.000292086
3.23818e-05
0.00034961
5.1305e-06
0.000279111
-3.53891e-06
0.000206257
-1.81619e-05
0.000156495
-5.08022e-06
0.000338761
-9.64802e-06
0.000375313
4.22841e-05
0.000312608
4.30738e-05
0.000240578
2.33911e-05
0.000198552
5.67118e-05
8.15656e-05
4.27033e-05
-5.4395e-05
5.51358e-05
-0.00027786
4.10816e-05
-0.000309446
3.81034e-05
-0.000391254
-3.12519e-06
-0.000350755
1.82383e-05
-0.00033479
4.6404e-05
-0.0002459
1.16706e-05
-3.4312e-05
-2.99671e-05
2.63292e-05
-2.37583e-05
6.57217e-06
-1.29456e-05
-2.54603e-05
-2.16011e-05
0.000104247
1.47091e-06
0.000269014
7.60023e-06
0.000343481
-1.1188e-05
0.000297899
3.3161e-05
0.000161908
1.31791e-05
0.000176477
1.24732e-05
0.000339467
0.000111997
0.000275789
0.000185141
0.000239465
0.00021201
0.000213709
0.000160212
0.00025035
0.000173324
6.84534e-05
0.000222265
-0.000103336
0.000115112
-0.000170707
6.60216e-05
-0.000260356
2.41742e-06
-0.00032765
-6.47564e-05
-0.000283581
-9.61855e-05
-0.000303361
-0.000171338
-0.000170748
-0.000142135
-6.35147e-05
-9.74464e-05
-1.83597e-05
-6.14937e-05
-2.93806e-05
-3.46848e-05
-3.97544e-05
-7.45e-08
0.000104321
1.68526e-05
0.000252087
1.63705e-05
0.000343963
1.43676e-05
0.000299902
1.14993e-05
0.000164777
1.48604e-05
0.000173116
8.10051e-05
0.000273322
0.000152095
0.000204698
0.000206068
0.000185493
0.000203665
0.000216112
0.00024764
0.000206376
0.000245408
7.06846e-05
0.0001668
-2.47281e-05
0.000184672
-0.000188578
0.000173514
-0.000249198
-7.22866e-06
-0.000146908
-6.33236e-05
-0.000227486
-0.000156492
-0.000210192
-0.000216243
-0.000110997
-0.000204284
-7.5473e-05
-0.000120611
-0.000102033
-6.66104e-05
-8.33814e-05
-5.18927e-05
-4.94026e-05
3.37597e-05
7.05616e-05
3.16761e-05
0.000254171
2.53606e-05
0.000350279
1.9371e-05
0.000305892
1.63239e-05
0.000167824
2.05873e-05
0.000168853
0.000139508
0.000154401
0.000129043
0.000215164
0.000112657
0.000201879
0.000181281
0.000147488
0.000261535
0.000126121
0.000296728
3.5492e-05
0.000312382
-4.03825e-05
0.000180545
-5.67411e-05
0.000103283
-0.000171937
8.6049e-05
-0.000129673
2.03098e-05
-0.000161747
-6.43586e-05
-0.000125524
-9.8386e-05
-7.69694e-05
-5.81525e-05
-0.000115706
-5.71073e-05
-0.000103078
-5.09669e-05
-8.95219e-05
-7.51528e-05
-2.77067e-05
4.6057e-05
2.45046e-05
3.17174e-05
0.00026851
4.04345e-05
0.000341561
5.0379e-05
0.000295947
1.20296e-05
0.000206173
-1.89851e-06
0.000182781
4.71379e-05
0.000105365
0.000106881
0.000155421
0.000179336
0.000129424
0.000240682
8.61412e-05
0.000316147
5.06567e-05
0.000349988
1.6508e-06
0.000349309
-3.97032e-05
0.000349516
-5.69487e-05
0.000261682
-8.41026e-05
0.000224801
-9.27919e-05
0.000130592
-6.75383e-05
2.14033e-05
-1.63357e-05
-3.55827e-05
-1.99834e-05
-6.45542e-05
-8.6735e-05
-7.97983e-05
-8.7834e-05
-7.13929e-05
-9.79273e-05
-0.000122711
-2.3835e-05
1.43626e-05
1.0142e-05
2.12199e-05
0.000261653
3.41411e-05
0.00032864
3.30825e-05
0.000297006
3.86776e-05
0.000200578
5.8576e-05
0.000162883
7.82146e-05
8.57262e-05
0.000166644
6.69911e-05
0.000269575
2.64933e-05
0.000336024
1.96922e-05
0.000363739
2.29419e-05
0.000361143
4.24725e-06
0.000342442
-2.1003e-05
0.000306365
-2.08709e-05
0.000239413
-1.7151e-05
0.00016601
-1.93892e-05
7.33063e-05
2.51657e-05
-1.54457e-05
7.24163e-05
-4.80312e-05
1.26021e-05
-5.89031e-05
-7.5863e-05
-5.73315e-05
-8.94056e-05
-2.78601e-05
-0.000127399
-0.000135163
-1.54077e-05
-2.47867e-05
3.49287e-05
4.95457e-06
0.000231911
4.32734e-05
0.000290321
6.01542e-05
0.000280125
9.17588e-05
0.000168973
0.00018456
7.00818e-05
0.000192457
7.78291e-05
0.00026753
-8.08171e-06
0.000305056
-1.10335e-05
0.000309127
1.56214e-05
0.000306657
2.54125e-05
0.00028896
2.1944e-05
0.000266672
1.2854e-06
0.000236188
9.61259e-06
0.000192591
2.64458e-05
0.000147199
2.60026e-05
9.09507e-05
8.14145e-05
2.17754e-05
0.000141592
-1.72721e-05
5.16497e-05
-2.23831e-05
-7.07521e-05
-5.50832e-05
-5.67055e-05
-2.38751e-05
-0.000158607
-0.000152455
-6.5835e-06
-5.69958e-05
9.19244e-05
-6.74119e-05
0.000242328
4.35368e-05
0.000179373
8.52364e-05
0.000238425
0.000152496
0.000101714
0.000184964
3.76143e-05
0.00027545
-1.26571e-05
0.000271987
-4.61877e-06
0.000275166
-1.42125e-05
0.000288168
2.61944e-06
0.000292806
2.07739e-05
0.000269699
4.5052e-05
0.000238009
3.29745e-05
0.000177638
6.99839e-05
0.000127263
7.68212e-05
7.11597e-05
8.21056e-05
8.68154e-05
6.57589e-05
2.0947e-05
0.00020746
-2.85964e-05
0.000101193
-3.96802e-05
-5.96683e-05
-3.10748e-05
-6.53111e-05
-1.43654e-05
-0.000175316
-0.000160142
-6.67822e-06
-3.32442e-05
0.000125169
-9.71905e-05
0.000306274
3.32513e-06
7.88566e-05
0.000158682
8.30681e-05
0.000205145
5.52503e-05
0.00023111
1.16494e-05
0.000264651
-4.61976e-05
0.00029382
-3.37876e-05
0.000304301
-2.46934e-05
0.000299923
6.99686e-06
0.000284752
3.59448e-05
0.000253063
7.67415e-05
0.000205267
8.07704e-05
0.00016139
0.000113861
0.000150864
8.73477e-05
0.000129272
0.000103697
8.38683e-05
0.000111163
1.64379e-05
0.00027489
-7.36147e-06
0.000124992
-3.94032e-05
-2.76266e-05
-5.36571e-06
-9.93487e-05
1.31444e-06
-0.000181996
-0.000153968
-4.85923e-06
-2.11815e-06
0.000127287
2.03858e-05
0.00028377
4.26245e-05
5.66177e-05
0.000103025
2.26675e-05
0.000247142
-8.88665e-05
0.00031057
-5.17791e-05
0.00034209
-7.77169e-05
0.000372173
-6.38713e-05
0.000387952
-4.04719e-05
0.000342976
5.1973e-05
0.000252323
0.000126598
0.000215529
0.000113535
0.000108588
0.000187711
9.26809e-05
0.000129768
8.54816e-05
9.45469e-05
6.90861e-05
0.000120093
1.09892e-05
0.00016926
-2.56641e-06
0.000288446
1.38821e-05
0.000108544
3.37687e-05
-4.75132e-05
6.7349e-06
-7.23149e-05
6.1836e-06
-0.000181445
-0.00015348
5.69484e-06
1.07113e-07
0.00012718
0.000103381
0.000180495
0.000120914
3.90852e-05
0.000186703
-4.31212e-05
0.000178757
-8.09204e-05
0.00020224
-7.52626e-05
0.000226261
-0.000101738
0.00024198
-7.95905e-05
0.00017601
2.54979e-05
0.000153425
7.45578e-05
0.000176094
0.000103929
0.000160726
0.000128904
0.000154858
0.000193578
0.000149838
0.000134788
0.000120039
0.000124346
3.79085e-05
0.000202223
-4.19848e-05
0.000249153
-1.23162e-05
0.000258777
9.11793e-06
8.71096e-05
6.01205e-06
-4.44074e-05
1.28741e-05
-7.9177e-05
1.24212e-05
-0.000180992
-0.000154763
1.37046e-05
3.18047e-06
0.000123999
7.43439e-05
0.000109332
5.54229e-05
5.80062e-05
8.16624e-05
-6.93608e-05
7.9222e-05
-7.848e-05
0.000109848
-0.000105889
0.000123081
-0.000114971
9.34697e-05
-4.99794e-05
0.000101375
1.75924e-05
0.000126589
4.93441e-05
0.000136689
9.38286e-05
0.000108679
0.000156914
0.000124678
0.00017758
0.000119939
0.000139527
7.04283e-05
0.000173856
-1.02066e-05
0.000282858
-0.000140156
0.000379103
-4.08149e-05
0.000159436
-8.35423e-06
5.4649e-05
-1.40313e-06
-5.13585e-05
3.84424e-05
-0.000119023
3.07063e-05
-0.000173256
-0.00014885
2.47937e-05
-1.43838e-05
0.000138383
3.09871e-05
6.39612e-05
3.19786e-05
5.70147e-05
-9.44099e-06
-2.79411e-05
5.92783e-06
-9.38487e-05
2.44099e-05
-0.000124371
1.75572e-05
-0.000108118
1.04672e-05
-4.28896e-05
6.8962e-06
2.11633e-05
1.37845e-05
4.24557e-05
1.91463e-05
8.84669e-05
5.35563e-05
0.000122504
6.44029e-05
0.000166733
3.7631e-05
0.000166299
-2.07761e-05
0.000232263
-9.15101e-05
0.000353592
-9.44639e-05
0.000382056
-3.18773e-05
9.68492e-05
1.26531e-05
1.01185e-05
4.5795e-05
-8.45004e-05
2.30927e-05
-9.63203e-05
3.25249e-05
-0.000182688
-0.000121114
4.78894e-06
-6.13247e-05
0.000199708
-6.63137e-05
6.89502e-05
-4.68716e-05
3.75726e-05
-3.89203e-05
-3.58924e-05
-6.47621e-05
-6.8007e-05
-7.23924e-05
-0.00011674
-9.94302e-05
-8.10801e-05
-0.000106978
-3.53415e-05
-9.8779e-05
1.2964e-05
-7.78674e-05
2.15442e-05
-2.48755e-05
3.5475e-05
2.63398e-05
7.12888e-05
1.27513e-05
0.000180322
-6.32225e-05
0.000242273
-4.51773e-05
0.000214218
-8.9422e-05
0.000397836
-5.32979e-05
0.000345932
-4.95271e-05
9.30783e-05
-5.91627e-06
-3.34924e-05
3.55535e-05
-0.00012597
3.71067e-05
-9.78735e-05
1.95401e-05
-0.000165122
-0.000151946
5.03713e-05
-2.6203e-05
0.000225911
-3.45871e-05
7.73344e-05
-6.79111e-05
7.08967e-05
-7.27111e-05
-3.10924e-05
-8.34906e-05
-5.72274e-05
-0.000111515
-8.87156e-05
-0.000140905
-5.16908e-05
-0.000126265
-4.99812e-05
-9.25631e-05
-2.07377e-05
-7.68709e-05
5.8519e-06
-5.53565e-05
1.39606e-05
-4.17531e-05
5.76854e-05
-5.33418e-05
0.00019191
-5.68761e-05
0.000245807
-7.42199e-05
0.000231562
-6.19643e-05
0.000385581
-1.08154e-05
0.000294783
-7.02381e-06
8.92866e-05
4.45615e-05
-8.50778e-05
6.55796e-05
-0.000146988
6.84206e-05
-0.000100714
5.66439e-05
-0.000153345
-0.000127257
3.19555e-05
5.29807e-05
0.00017293
2.05741e-05
0.000109741
-2.14797e-05
0.000112951
-7.35669e-05
2.09949e-05
-8.59564e-05
-4.48379e-05
-0.000124525
-5.01472e-05
-0.000131226
-4.49896e-05
-0.000139694
-4.15134e-05
-0.000129349
-3.10827e-05
-8.76059e-05
-3.58914e-05
-9.87764e-05
2.51311e-05
-7.95154e-05
3.84243e-05
-7.71379e-05
0.000189533
-4.01158e-05
0.000208785
-9.89329e-05
0.000290379
-6.01999e-05
0.000346848
1.44178e-05
0.000220166
7.53132e-05
2.83911e-05
7.60829e-05
-8.58476e-05
6.94254e-05
-0.000140331
9.8933e-05
-0.000130222
7.80726e-05
-0.000132485
-0.000118004
6.88195e-05
4.87796e-05
0.00012415
1.66151e-05
0.000141906
1.9749e-05
0.000109817
-3.0423e-05
7.1167e-05
-0.000105985
3.07241e-05
-0.000130024
-2.61083e-05
-0.000152161
-2.28522e-05
-0.000157021
-3.66533e-05
-0.000163306
-2.47979e-05
-0.000187994
-1.12034e-05
-0.000191978
2.91149e-05
-0.00018373
3.01759e-05
-0.000154092
0.000159895
-5.65756e-05
0.000111269
-3.47915e-05
0.000268594
-1.62576e-06
0.000313682
0.000122045
9.64942e-05
0.000160151
-9.71479e-06
0.000125724
-5.14204e-05
0.000110075
-0.000124683
9.84952e-05
-0.000118642
7.01982e-05
-0.000104188
-9.73553e-05
4.95491e-05
1.45833e-05
0.000109567
-7.21924e-06
0.000163708
-3.58112e-05
0.000138409
-4.52113e-05
8.05672e-05
-6.5393e-05
5.09058e-05
-0.000102324
1.0823e-05
-0.000121488
-3.68874e-06
-0.000146194
-1.1947e-05
-0.000167605
-3.38686e-06
-0.000187744
8.93473e-06
-0.000184551
2.59223e-05
-0.000177052
2.26768e-05
-8.50898e-05
6.79326e-05
-7.91742e-05
0.000105354
-9.25312e-06
0.000198673
8.63387e-05
0.00021809
8.9607e-05
9.32258e-05
0.000108264
-2.83721e-05
0.00016252
-0.000105676
0.000106882
-6.90447e-05
8.40538e-05
-9.58137e-05
6.22688e-05
-8.24032e-05
-6.69385e-05
3.18518e-05
-6.67447e-06
0.000116242
-3.65862e-05
0.00019362
-5.23822e-05
0.000154205
-5.70129e-05
8.51979e-05
-6.47109e-05
5.86038e-05
-7.65518e-05
2.26639e-05
-8.36401e-05
3.39954e-06
-9.33425e-05
-2.24463e-06
-0.00010056
3.83041e-06
-0.000109352
1.77266e-05
-9.4263e-05
1.08336e-05
-8.78087e-05
1.62226e-05
-7.11858e-05
5.13096e-05
-3.90412e-05
7.32088e-05
2.18099e-05
0.000137822
0.000140915
9.89847e-05
0.000197006
3.7135e-05
0.000190139
-2.15058e-05
0.000129709
-4.52465e-05
0.000102735
-4.20705e-05
8.8895e-05
-8.19736e-05
5.37278e-05
-4.72361e-05
-5.83445e-05
4.51337e-05
-1.82923e-05
0.000134534
-4.77147e-05
0.000223042
-6.19709e-05
0.000168461
-6.38943e-05
8.71213e-05
-5.50738e-05
4.97834e-05
-6.45239e-05
3.2114e-05
-4.30988e-05
-1.80256e-05
-3.2987e-05
-1.23564e-05
-3.40877e-05
4.93113e-06
-2.90105e-05
1.26494e-05
-2.45793e-05
6.40235e-06
-2.08692e-05
1.25125e-05
-1.30212e-06
3.17426e-05
3.35094e-05
3.83972e-05
8.04279e-05
9.09036e-05
0.000108597
7.08153e-05
8.73824e-05
5.83498e-05
7.80716e-05
-1.2195e-05
6.94001e-05
-3.65751e-05
8.52147e-05
-5.78851e-05
6.75817e-05
-6.43407e-05
5.96462e-05
-3.93006e-05
-3.28139e-05
3.41155e-05
-2.00193e-05
0.000154553
-5.62126e-05
0.000259236
-7.2694e-05
0.000184942
-8.79227e-05
0.00010235
-7.48543e-05
3.67149e-05
-3.87406e-05
-3.99977e-06
-4.69394e-05
-9.82681e-06
-3.46407e-05
-2.4655e-05
-2.38563e-05
-5.85321e-06
-8.61082e-06
-2.59608e-06
-4.89966e-07
-1.71848e-06
6.26158e-06
5.76087e-06
1.58632e-05
2.2141e-05
1.84693e-05
3.57911e-05
5.84704e-05
5.09026e-05
9.46033e-05
3.46824e-05
0.000150473
2.48045e-06
0.000135896
2.38122e-06
0.000116389
-1.70674e-05
7.88345e-05
-2.03309e-05