/*--------------------------------*- C++ -*----------------------------------*\
| =========                 |                                                 |
| \\      /  F ield         | foam-extend: Open Source CFD                    |
|  \\    /   O peration     | Version:     4.1                                |
|   \\  /    A nd           | Web:         http://www.foam-extend.org         |
|    \\/     M anipulation  |                                                 |
\*---------------------------------------------------------------------------*/
FoamFile
{
    version     2.0;
    format      ascii;
    class       volVectorField;
    location    "0.95";
    object      U;
}
// * * * * * * * * * * * * * * * * * * * * * * * * * * * * * * * * * * * * * //

dimensions      [0 1 -1 0 0 0 0];

internalField   nonuniform List<vector> 
2268
(
(-0.00432884 0.00993285 0)
(-0.0350512 0.00857166 0)
(-0.0307425 0.005929 0)
(-0.0583349 -0.0153095 0)
(-0.0765821 0.00635011 0)
(-0.136822 0.00346115 0)
(-0.159356 -0.00372706 0)
(-0.158222 -0.013439 0)
(-0.13241 -0.0223545 0)
(-0.0497122 -0.00335574 0)
(-0.0235492 0.00159083 0)
(0.00723025 -0.0202138 0)
(0.0754138 -0.000813355 0)
(0.0909944 -0.0189816 0)
(0.103659 -0.00196375 0)
(0.12624 -0.014364 0)
(0.125682 0.00839917 0)
(0.0908893 0.00347481 0)
(0.0607642 0.00134112 0)
(0.0462139 -0.00565885 0)
(0.0158483 -0.00207122 0)
(0.00880369 -0.00289945 0)
(0.021783 0.00491517 0)
(0.00549365 0.00884735 0)
(-0.0196521 0.0042861 0)
(-0.0200942 0.00375261 0)
(-0.0673676 0.00654102 0)
(-0.0745786 0.0111256 0)
(-0.128425 0.0386461 0)
(-0.150831 0.0122079 0)
(-0.145338 0.00153853 0)
(-0.0995672 -0.0153527 0)
(-0.0630083 -0.0021174 0)
(-0.0417128 -0.0336158 0)
(-0.000361362 -0.0305647 0)
(0.0507191 -0.0351485 0)
(0.0559385 -0.0142811 0)
(0.0759451 -0.0112473 0)
(0.119762 0.000733769 0)
(0.0996481 0.0133345 0)
(0.0543428 0.0225985 0)
(0.0405522 0.0224894 0)
(0.0342766 0.0254277 0)
(0.011668 0.0210222 0)
(0.00651536 -0.00248439 0)
(0.0174344 0.0102449 0)
(0.00224591 0.0162485 0)
(-0.0329795 0.0111569 0)
(-0.0389614 0.0178303 0)
(-0.0845974 -0.00247612 0)
(-0.0910285 0.0197265 0)
(-0.144091 -0.000953702 0)
(-0.16802 -0.00529952 0)
(-0.164312 -0.0355434 0)
(-0.135503 0.0113894 0)
(-0.129182 -0.0559964 0)
(-0.0765315 -0.0414674 0)
(-0.0306404 -0.0405752 0)
(0.0208526 -0.0308286 0)
(0.0399872 -0.0184388 0)
(0.0639602 -0.0221662 0)
(0.100287 0.0285786 0)
(0.0576575 -7.46571e-05 0)
(0.0230943 0.0223136 0)
(0.015014 0.0131022 0)
(0.0118415 0.0353006 0)
(-0.00825588 0.018443 0)
(-0.00649197 -0.00952196 0)
(0.0182211 0.0117343 0)
(-0.00993429 0.0237515 0)
(-0.0250327 0.0245452 0)
(-0.0507974 0.0249303 0)
(-0.0781263 0.0357649 0)
(-0.0802678 0.0341432 0)
(-0.146516 0.0154072 0)
(-0.17188 0.0140619 0)
(-0.157516 0.0137591 0)
(-0.177377 0.0277278 0)
(-0.169232 -0.0536545 0)
(-0.11176 -0.0481931 0)
(-0.0840246 -0.085679 0)
(-0.00964513 -0.143542 0)
(0.036126 -0.114461 0)
(0.0787629 -0.0385284 0)
(0.0953559 0.0347119 0)
(0.0442627 0.0191389 0)
(-0.0304898 0.0375417 0)
(-0.0374933 0.0325402 0)
(-0.017061 0.00650457 0)
(-0.0297272 0.0297822 0)
(-0.00436753 -0.0124515 0)
(0.0249445 0.0161567 0)
(-0.0116182 0.032944 0)
(-0.0272234 0.0282221 0)
(-0.0285219 0.015978 0)
(-0.0731234 0.0385928 0)
(-0.0932092 0.0373357 0)
(-0.184035 0.0377418 0)
(-0.206715 0.0146911 0)
(-0.194484 0.0353052 0)
(-0.218865 -0.0480127 0)
(-0.179265 -0.00605846 0)
(-0.13819 -0.0583732 0)
(-0.132806 -0.0902356 0)
(-0.0451242 -0.128961 0)
(0.0506327 -0.102035 0)
(0.0917785 -0.0431379 0)
(0.103233 0.0766615 0)
(0.0472949 0.064531 0)
(-0.0499767 0.0528207 0)
(-0.0915216 0.0279297 0)
(-0.0505566 0.0385359 0)
(-0.0645786 0.0673147 0)
(-0.0378732 -0.0406691 0)
(0.0309859 0.0233317 0)
(-0.0149107 0.0416612 0)
(-0.039198 0.0352403 0)
(-0.0543463 0.0446312 0)
(-0.0813638 0.0363265 0)
(-0.107302 0.0156706 0)
(-0.179028 0.0782311 0)
(-0.199361 0.0164944 0)
(-0.212526 0.0719494 0)
(-0.23147 0.0228613 0)
(-0.202356 0.00235363 0)
(-0.188408 -0.0691781 0)
(-0.15507 -0.129201 0)
(-0.068565 -0.105542 0)
(0.00684629 -0.0735757 0)
(0.0355967 -0.0575159 0)
(0.111631 0.0645844 0)
(0.0137287 0.0947769 0)
(-0.103122 0.0960773 0)
(-0.127157 0.0474449 0)
(-0.100574 0.0197353 0)
(-0.110592 0.0194116 0)
(-0.0566481 -0.0570085 0)
(0.0481622 0.0152022 0)
(-0.0156208 0.0478643 0)
(-0.0270306 0.0566001 0)
(-0.04855 0.0337241 0)
(-0.0942215 0.0559452 0)
(-0.091085 0.0253491 0)
(-0.196268 0.078764 0)
(-0.236659 0.0265805 0)
(-0.227768 0.0511018 0)
(-0.249101 0.0475178 0)
(-0.220658 -0.0271312 0)
(-0.263164 -0.080221 0)
(-0.274981 -0.147703 0)
(-0.159731 -0.189363 0)
(-0.0749691 -0.267371 0)
(-0.0421284 -0.0906213 0)
(0.0434954 0.0760314 0)
(-0.0136175 0.160327 0)
(-0.136581 0.118338 0)
(-0.170827 0.0214525 0)
(-0.145661 0.00387744 0)
(-0.129977 -0.0275986 0)
(-0.0411819 -0.0828587 0)
(0.0572676 0.0209838 0)
(-0.00671445 0.0604373 0)
(-0.0354482 0.0514546 0)
(-0.0694707 0.0521509 0)
(-0.126249 0.0556656 0)
(-0.160521 0.0251452 0)
(-0.230341 0.0434767 0)
(-0.240124 0.104902 0)
(-0.238606 0.0962138 0)
(-0.277595 0.119344 0)
(-0.289063 0.00819685 0)
(-0.354279 -0.0470081 0)
(-0.379901 -0.188344 0)
(-0.361745 -0.241451 0)
(-0.212118 -0.262038 0)
(-0.0833414 -0.0972666 0)
(-0.173171 0.0356155 0)
(-0.0574677 0.198625 0)
(-0.159594 0.151937 0)
(-0.19817 0.0437245 0)
(-0.14921 -0.00357628 0)
(-0.142909 -0.0358744 0)
(-0.0720592 -0.154166 0)
(0.0894532 0.0718735 0)
(-0.248179 0.0984515 0)
(-0.372243 0.0163847 0)
(-0.407461 -0.0136553 0)
(-0.253009 -0.0467721 0)
(-0.205876 0.00381241 0)
(-0.273057 0.00122006 0)
(-0.393413 -0.0106663 0)
(-0.432957 -0.0485919 0)
(-0.423351 -0.0927551 0)
(-0.263645 -0.17536 0)
(-0.0271552 -0.146611 0)
(0.101011 -0.034815 0)
(0.0518636 0.0690676 0)
(-0.0434822 -0.0227849 0)
(-0.0232179 -0.0602828 0)
(0.0324757 0.021508 0)
(0.00898569 -0.012567 0)
(0.0157388 0.00771401 0)
(-0.0191514 0.00575418 0)
(-0.218144 0.152165 0)
(-0.26555 0.0556531 0)
(-0.27174 -0.0861695 0)
(0.0160546 -0.120811 0)
(0.135527 0.00984392 0)
(0.0384086 0.168233 0)
(-0.203805 0.149421 0)
(-0.337703 0.0603214 0)
(-0.324757 -0.0509285 0)
(-0.248596 -0.148498 0)
(0.000993771 -0.140292 0)
(0.237181 0.011311 0)
(0.267936 -0.0114686 0)
(0.173426 0.059572 0)
(0.132453 0.0408138 0)
(0.216742 -0.0559952 0)
(0.175391 0.0398378 0)
(0.0496531 0.00178978 0)
(-0.0544152 -0.00547494 0)
(-0.157287 0.262033 0)
(-0.0936452 0.0602697 0)
(0.062996 -0.0512109 0)
(0.227721 -0.162665 0)
(0.175989 -0.0165783 0)
(0.195194 0.168734 0)
(-0.0278462 0.155947 0)
(-0.220717 0.112429 0)
(-0.220106 -0.0530286 0)
(-0.2315 -0.157866 0)
(0.00349759 -0.269913 0)
(0.2587 -0.0948364 0)
(0.252026 0.0128881 0)
(0.239855 0.00622506 0)
(0.197567 0.0220353 0)
(0.264955 -0.0458334 0)
(0.247198 0.0748667 0)
(0.0470498 0.0546716 0)
(-0.00701729 0.00237308 0)
(-0.0835785 0.242321 0)
(0.266964 0.0242085 0)
(0.311794 -0.18293 0)
(0.375971 -0.188204 0)
(0.300139 0.00951928 0)
(0.190806 0.152325 0)
(0.0953604 0.138792 0)
(0.0301806 0.191634 0)
(-0.168986 -0.0281275 0)
(-0.0392133 -0.234118 0)
(0.00692491 -0.376702 0)
(0.292913 -0.170827 0)
(0.327336 0.0698036 0)
(0.257513 -0.00504073 0)
(0.17343 0.0138765 0)
(0.219654 0.00690425 0)
(0.251619 0.0744852 0)
(0.102645 0.100299 0)
(0.0982932 0.0380378 0)
(0.0297489 0.148239 0)
(0.415876 -0.071398 0)
(0.424855 -0.360201 0)
(0.443086 -0.233035 0)
(0.306269 0.0776329 0)
(0.142109 0.215552 0)
(0.0526179 0.225688 0)
(0.0386508 0.210147 0)
(-0.180425 0.00659882 0)
(0.106344 -0.235364 0)
(0.0148246 -0.395317 0)
(0.127503 -0.175832 0)
(0.339705 -0.0529592 0)
(0.335498 0.0704442 0)
(0.23429 0.0575326 0)
(0.248066 0.0232261 0)
(0.262829 0.0759559 0)
(0.081273 0.116472 0)
(0.079898 0.0661296 0)
(0.0654708 0.0518152 0)
(0.373714 -0.00594381 0)
(0.488887 -0.332681 0)
(0.49667 -0.198228 0)
(0.349433 0.142911 0)
(0.147682 0.241906 0)
(0.0712298 0.477295 0)
(-0.0208976 0.245029 0)
(-0.150614 -0.0535727 0)
(0.185104 -0.299587 0)
(0.0379722 -0.383852 0)
(0.08304 -0.133962 0)
(0.19728 -0.123151 0)
(0.29022 0.0878627 0)
(0.285145 0.111538 0)
(0.244116 0.104084 0)
(0.248592 0.0620817 0)
(0.142719 0.116569 0)
(0.10622 0.104188 0)
(0.133576 -0.0517892 0)
(0.385185 -0.113685 0)
(0.49342 -0.300921 0)
(0.484003 -0.219292 0)
(0.213915 0.24419 0)
(0.175601 0.352229 0)
(0.113843 0.422297 0)
(-0.0754831 0.248988 0)
(-0.0953812 -0.0249227 0)
(0.320023 -0.293492 0)
(0.13169 -0.584697 0)
(0.00594346 -0.31548 0)
(0.162445 -0.182306 0)
(0.320962 -0.0504157 0)
(0.393109 0.0278925 0)
(0.314185 0.117681 0)
(0.242912 0.0744069 0)
(0.177713 0.148674 0)
(0.145875 0.16184 0)
(0.220984 -0.179707 0)
(0.420719 -0.233922 0)
(0.512341 -0.361713 0)
(0.440835 -0.27172 0)
(0.152187 0.724921 0)
(0.0244111 0.57208 0)
(0.0705943 0.302401 0)
(-0.15842 0.280528 0)
(0.121984 -0.194496 0)
(0.353307 -0.29032 0)
(0.211853 -0.658721 0)
(0.146113 -0.442718 0)
(0.235272 -0.154386 0)
(0.331925 -0.0205728 0)
(0.349132 0.118546 0)
(0.242704 0.187877 0)
(0.215328 0.149089 0)
(0.176799 0.161915 0)
(0.186843 0.186863 0)
(-0.021257 0.063995 0)
(0.00512059 0.125869 0)
(-0.0300627 0.073367 0)
(-0.177293 0.113939 0)
(-0.180584 0.103722 0)
(-0.185184 0.0962098 0)
(-0.240354 0.1372 0)
(-0.255501 0.0963175 0)
(-0.328867 0.0990415 0)
(-0.403192 -0.0102427 0)
(-0.484134 -0.0305914 0)
(-0.547524 -0.112759 0)
(-0.549687 -0.153064 0)
(-0.530529 -0.129941 0)
(-0.505953 -0.116028 0)
(-0.468689 -0.0785517 0)
(-0.258411 0.162752 0)
(-0.184617 0.137039 0)
(-0.193568 0.0754186 0)
(-0.206788 -0.0187287 0)
(-0.135773 -0.071925 0)
(-0.108563 -0.196011 0)
(0.0577674 -0.068066 0)
(0.0256239 0.0710579 0)
(-0.0788859 0.144786 0)
(-0.0767951 0.148068 0)
(-0.133643 0.126378 0)
(-0.223478 0.167809 0)
(-0.224728 0.117196 0)
(-0.222581 0.090673 0)
(-0.259921 0.159552 0)
(-0.338444 0.18947 0)
(-0.379925 0.193546 0)
(-0.502269 0.0862421 0)
(-0.704979 -0.227684 0)
(-0.7932 -0.370067 0)
(-0.851729 -0.408626 0)
(-0.878125 -0.395057 0)
(-0.677904 -0.0953736 0)
(-0.374145 0.0528511 0)
(-0.345693 0.191481 0)
(-0.188602 0.110343 0)
(-0.145524 -0.101356 0)
(-0.0594683 -0.247395 0)
(-0.140767 -0.272108 0)
(-0.180917 -0.234949 0)
(-0.0284414 0.104589 0)
(0.00244669 0.138464 0)
(-0.0853745 0.172447 0)
(-0.156025 0.17367 0)
(-0.189163 0.169003 0)
(-0.288387 0.173217 0)
(-0.251958 0.191954 0)
(-0.204872 0.211225 0)
(-0.310309 0.254377 0)
(-0.355274 0.32496 0)
(-0.46127 0.273435 0)
(-0.897168 0.0841213 0)
(-0.8999 -0.375584 0)
(-0.901008 -0.514384 0)
(-0.828396 -0.469516 0)
(-0.692574 -0.237041 0)
(-0.451778 -0.263344 0)
(-0.35564 -0.149509 0)
(-0.280418 -0.16082 0)
(-0.251942 -0.153857 0)
(-0.148812 -0.302393 0)
(-0.122681 -0.282561 0)
(-0.231666 -0.263302 0)
(-0.0284418 0.0840932 0)
(-0.0897594 0.158548 0)
(-0.0187535 0.222238 0)
(-0.103862 0.21782 0)
(-0.146659 0.332013 0)
(-0.175912 0.191638 0)
(-0.230631 0.225927 0)
(-0.272213 0.21119 0)
(-0.250014 0.265667 0)
(-0.2916 0.464119 0)
(-0.359236 0.585741 0)
(-0.677262 0.417629 0)
(-0.64442 -0.0978318 0)
(-0.800173 -0.474812 0)
(-0.963535 -0.562576 0)
(-0.835634 -0.320674 0)
(-0.441214 -0.230715 0)
(-0.29255 -0.211795 0)
(-0.258513 -0.209254 0)
(-0.215011 -0.160399 0)
(-0.187323 -0.145872 0)
(-0.212025 -0.131691 0)
(-0.3108 -0.111229 0)
(-0.0288319 0.174044 0)
(-0.0106972 0.17125 0)
(0.0209768 0.399372 0)
(0.00844516 0.320995 0)
(-0.181633 0.353618 0)
(-0.242539 0.182162 0)
(-0.22778 0.156934 0)
(-0.235099 0.217455 0)
(-0.200952 0.287483 0)
(-0.145538 0.431681 0)
(-0.0800519 0.723011 0)
(-0.287542 0.982771 0)
(-0.279684 -0.0507493 0)
(-0.616068 -0.437569 0)
(-0.976568 -0.874157 0)
(-0.9457 -0.449743 0)
(-0.89218 -0.185847 0)
(-0.593408 -0.174524 0)
(-0.416701 -0.253082 0)
(-0.380259 -0.222859 0)
(-0.249173 -0.117145 0)
(-0.202522 -0.170691 0)
(-0.216377 -0.0845869 0)
(0.200704 0.144597 0)
(0.125279 0.378814 0)
(-0.0900101 0.320282 0)
(-0.0601066 0.345885 0)
(-0.229402 0.366271 0)
(-0.253349 0.233796 0)
(-0.259949 0.18446 0)
(-0.246452 0.185419 0)
(-0.0849689 0.190504 0)
(0.0383229 0.31367 0)
(-0.146207 0.74221 0)
(-0.374289 0.889355 0)
(-0.520316 0.0536013 0)
(-0.585492 -0.279395 0)
(-0.954804 -0.414822 0)
(-1.02577 -0.35717 0)
(-0.883818 -0.665156 0)
(-0.641827 -0.654014 0)
(-0.0717205 -0.389197 0)
(0.0404389 -0.19677 0)
(-0.302197 -0.319328 0)
(-0.238809 -0.350654 0)
(-0.177604 -0.0977054 0)
(0.0156688 -0.238949 0)
(0.373769 0.315324 0)
(-0.241216 0.524502 0)
(-0.298582 0.460065 0)
(-0.393902 0.470474 0)
(-0.377117 0.224565 0)
(-0.293663 0.141938 0)
(-0.148841 0.0297393 0)
(0.103176 -0.0141637 0)
(-0.234781 0.496711 0)
(-0.43213 0.90469 0)
(-0.59061 0.873959 0)
(-0.335661 0.21012 0)
(-0.581187 -0.115709 0)
(-0.715854 -0.355371 0)
(-0.706381 -0.578768 0)
(-0.563277 -0.81815 0)
(-0.422564 -0.873121 0)
(-0.166302 -0.804583 0)
(0.203029 -0.181598 0)
(0.211507 -0.111648 0)
(-0.176959 -0.396863 0)
(-0.176315 -0.109188 0)
(-0.179243 -0.325629 0)
(0.186797 0.71263 0)
(-0.756328 0.803461 0)
(-0.547366 0.55814 0)
(-0.509678 0.456355 0)
(-0.442594 0.152646 0)
(-0.213631 0.0593777 0)
(-0.229241 -0.230018 0)
(-0.38554 0.397183 0)
(-0.849515 0.93386 0)
(-0.848584 1.07256 0)
(-0.6791 0.597725 0)
(-0.576531 0.248527 0)
(-0.679611 0.0746036 0)
(-0.810252 -0.231024 0)
(-0.674171 -0.574136 0)
(-0.532788 -0.875744 0)
(-0.45233 -0.989481 0)
(-0.387013 -0.957388 0)
(-0.381717 -0.422546 0)
(0.153275 0.225113 0)
(-0.20305 0.0317878 0)
(-0.218775 0.0175215 0)
(-0.267116 -0.287646 0)
(-0.134425 1.21303 0)
(-0.608961 1.1538 0)
(-0.529007 0.652305 0)
(-0.526529 0.391326 0)
(-0.392752 -0.0788318 0)
(-0.338811 -0.206539 0)
(-0.804505 0.140043 0)
(-1.10552 0.717322 0)
(-1.20969 0.832771 0)
(-1.0328 0.878318 0)
(-0.850284 0.593526 0)
(-0.825313 0.403623 0)
(-0.859562 0.0667735 0)
(-0.834696 -0.154719 0)
(-0.83136 -0.652665 0)
(-0.761014 -0.980813 0)
(-0.570293 -0.978728 0)
(-0.601803 -0.885849 0)
(-0.712172 -0.521024 0)
(-0.470789 -0.31353 0)
(-0.365852 -0.0746425 0)
(-0.403824 0.0127605 0)
(-0.284572 -0.178094 0)
(-0.0206072 1.62994 0)
(-0.385706 1.49246 0)
(-0.366828 0.66544 0)
(-0.365321 0.316602 0)
(-0.332188 0.0139023 0)
(-0.795626 0.338643 0)
(-1.07392 0.560448 0)
(-1.25926 0.898231 0)
(-1.28075 0.986662 0)
(-0.99803 1.01099 0)
(-0.897341 0.950615 0)
(-1.031 0.407653 0)
(-0.929497 0.0961978 0)
(-1.109 -0.423676 0)
(-1.07395 -0.867654 0)
(-0.845848 -1.23451 0)
(-0.624616 -1.28548 0)
(-0.856449 -0.957109 0)
(-0.822237 -0.469554 0)
(-0.705291 -0.204889 0)
(-0.629016 -0.205598 0)
(-0.652715 -0.223337 0)
(-0.267725 -0.142284 0)
(0.299312 1.55471 0)
(-0.271961 1.44234 0)
(-0.497036 0.636816 0)
(-0.354489 0.392431 0)
(-0.533224 0.327146 0)
(-0.779209 0.551849 0)
(-0.81481 0.719427 0)
(-1.086 1.0685 0)
(-1.06535 1.27447 0)
(-0.952204 1.23953 0)
(-1.0606 0.725065 0)
(-1.23652 0.214676 0)
(-1.00722 -0.0908613 0)
(-1.22763 -0.566582 0)
(-1.16471 -0.841731 0)
(-0.956689 -1.21622 0)
(-0.963046 -1.40686 0)
(-1.10213 -1.1188 0)
(-0.772414 -0.419465 0)
(-0.690659 -0.2064 0)
(-0.578851 -0.302933 0)
(-0.606876 -0.336302 0)
(-0.232778 -0.210147 0)
(0.246071 1.54418 0)
(-0.165523 1.36745 0)
(-0.374415 0.669838 0)
(-0.344242 0.458356 0)
(-0.295643 0.452487 0)
(-0.542357 0.658783 0)
(-0.710448 0.955849 0)
(-0.9058 1.04834 0)
(-1.00037 1.17034 0)
(-1.20592 1.0087 0)
(-1.4537 0.71292 0)
(-1.39869 0.388165 0)
(-0.973441 -0.102261 0)
(-0.802523 -0.764346 0)
(-0.651901 -0.873561 0)
(-0.723857 -1.08605 0)
(-0.751998 -1.36756 0)
(-0.990013 -1.38864 0)
(-0.779076 -0.887516 0)
(-0.615222 -0.544669 0)
(-0.612744 -0.380404 0)
(-0.609126 -0.0985752 0)
(-0.260016 -0.229731 0)
(0.109403 1.66057 0)
(-0.187041 1.49529 0)
(-0.231454 0.777554 0)
(-0.213003 0.550614 0)
(-0.348933 0.53171 0)
(-0.619668 0.880441 0)
(-0.703297 1.03855 0)
(-0.80093 1.00578 0)
(-0.84852 0.913445 0)
(-0.918761 0.695842 0)
(-0.960089 0.334409 0)
(-0.779865 0.0495292 0)
(-0.556944 -0.32394 0)
(-0.475949 -0.675364 0)
(-0.216946 -0.860996 0)
(-0.0317383 -1.04261 0)
(0.139007 -1.10276 0)
(-0.152799 -0.919219 0)
(-0.469343 -0.940048 0)
(-0.103186 -0.495227 0)
(-0.137263 -0.525757 0)
(-0.296871 -0.441261 0)
(-0.257854 -0.0919008 0)
(0.00724388 1.53104 0)
(-0.204179 1.57627 0)
(-0.147538 0.822594 0)
(-0.264943 0.62765 0)
(-0.212078 0.565581 0)
(-0.384922 1.03647 0)
(-0.536234 1.20278 0)
(-0.682731 1.08996 0)
(-0.681757 0.929294 0)
(-0.595855 0.875434 0)
(-0.879124 0.417032 0)
(-0.615624 -0.326106 0)
(-0.386126 -0.753189 0)
(-0.247322 -0.898793 0)
(0.0277237 -1.05642 0)
(0.15932 -1.33267 0)
(0.486095 -1.13141 0)
(0.481769 -0.785056 0)
(0.216495 -0.63744 0)
(0.149739 -0.377916 0)
(-0.0227993 -0.419617 0)
(-0.261282 -0.355155 0)
(-0.212487 0.0135792 0)
(-0.0673956 1.33797 0)
(-0.175223 1.59233 0)
(0.00684018 1.17715 0)
(-0.045356 0.738885 0)
(-0.108918 0.829885 0)
(-0.302226 1.22969 0)
(-0.501081 1.35399 0)
(-0.618338 1.23904 0)
(-0.355879 1.09331 0)
(-0.472726 0.805388 0)
(-1.01045 0.387532 0)
(-0.882203 -0.246303 0)
(-0.358479 -0.865574 0)
(-0.256095 -1.1017 0)
(0.129549 -1.52688 0)
(0.184492 -1.53355 0)
(0.539658 -1.18751 0)
(0.613779 -0.724736 0)
(0.363643 -0.538743 0)
(0.110746 -0.243433 0)
(-0.0321619 -0.11661 0)
(-0.0903267 -0.369241 0)
(-0.146641 0.123771 0)
(-0.0233794 1.22267 0)
(0.0114423 1.61852 0)
(0.0835732 1.43137 0)
(-0.0785057 0.765274 0)
(-0.107387 0.939735 0)
(-0.0733701 1.27527 0)
(-0.278065 1.4621 0)
(-0.383181 1.45604 0)
(-0.256082 1.64937 0)
(-0.19703 0.830195 0)
(-0.434188 0.207229 0)
(-0.236298 -0.0147917 0)
(0.0241759 -0.838964 0)
(-0.0903794 -1.15659 0)
(0.160366 -1.57747 0)
(0.192386 -1.57277 0)
(0.523815 -1.2085 0)
(0.571702 -0.729462 0)
(0.353181 -0.551602 0)
(0.0370747 -0.219223 0)
(0.113155 0.0473001 0)
(-0.115246 -0.147998 0)
(-0.0979682 0.220832 0)
(-0.0575021 1.10636 0)
(0.115399 1.43621 0)
(0.115424 1.1867 0)
(-0.00697392 0.750132 0)
(-0.0675967 1.05644 0)
(-0.0271192 1.24285 0)
(-0.0250315 1.31056 0)
(-0.0299718 1.34951 0)
(0.262999 1.75843 0)
(0.0505691 1.36226 0)
(0.201561 0.593064 0)
(0.125331 -0.477939 0)
(0.498346 -1.12161 0)
(0.312934 -1.20902 0)
(0.25241 -1.48974 0)
(-0.071248 -1.47985 0)
(-0.0728695 -1.36384 0)
(0.0424713 -1.02293 0)
(0.0855293 -0.466616 0)
(-0.0954963 -0.00611765 0)
(-0.265388 0.106799 0)
(-0.124346 -0.0447065 0)
(-0.0630616 0.307732 0)
(-0.0871649 1.00942 0)
(0.107896 1.34605 0)
(-0.0416905 1.10095 0)
(0.00780341 0.894064 0)
(0.191546 1.13846 0)
(0.0124908 1.24883 0)
(0.190437 1.48056 0)
(0.506126 1.68329 0)
(0.884069 1.62017 0)
(0.73541 1.32609 0)
(0.541355 0.618081 0)
(0.628578 -0.274181 0)
(0.915693 -0.97295 0)
(0.704133 -1.07332 0)
(0.239254 -1.22609 0)
(-0.272054 -1.1746 0)
(-0.525859 -1.27144 0)
(-0.759876 -0.780516 0)
(-0.767914 -0.0353339 0)
(-0.892869 0.177144 0)
(-0.412013 0.0166854 0)
(-0.15648 -0.0129118 0)
(0.0462161 0.3716 0)
(-0.0536644 0.918638 0)
(0.158487 1.31729 0)
(0.0525471 1.12024 0)
(0.0561299 1.18773 0)
(0.13501 1.20768 0)
(0.0957076 1.22746 0)
(0.458597 1.59249 0)
(0.674996 1.58148 0)
(0.882522 1.31303 0)
(0.749107 0.995361 0)
(0.960756 0.446912 0)
(0.882827 -0.3346 0)
(1.22339 -0.995814 0)
(1.05588 -1.08055 0)
(0.238802 -1.11109 0)
(-0.277871 -1.03364 0)
(-0.581448 -0.959268 0)
(-0.801094 -0.691045 0)
(-0.862673 -0.533389 0)
(-0.58024 -0.355112 0)
(-0.311783 -0.257361 0)
(-0.199319 -0.245158 0)
(0.143372 0.344194 0)
(0.076255 0.867026 0)
(0.203483 1.35759 0)
(0.0485969 1.12456 0)
(0.0895115 1.1656 0)
(0.101972 1.1872 0)
(0.247925 1.08076 0)
(0.67334 1.20638 0)
(0.494377 1.08375 0)
(0.529914 0.627585 0)
(0.74438 0.54281 0)
(1.0872 0.158298 0)
(1.07423 -0.0606687 0)
(1.25872 -0.452542 0)
(1.13656 -0.79694 0)
(0.402096 -1.03074 0)
(0.37228 -0.706072 0)
(-0.0987098 -0.622799 0)
(-0.326791 -0.801033 0)
(-0.351795 -0.542298 0)
(-0.454993 -0.444784 0)
(-0.284738 -0.362009 0)
(-0.141655 -0.499202 0)
(0.115942 0.113556 0)
(0.203548 0.909983 0)
(0.238626 1.36687 0)
(0.106464 1.14281 0)
(0.221309 1.06826 0)
(-0.0454508 0.964562 0)
(0.0199568 0.905015 0)
(0.35506 0.704726 0)
(0.449434 0.566649 0)
(0.746423 0.423637 0)
(0.935726 0.363061 0)
(1.24252 0.111504 0)
(1.24323 -0.196601 0)
(1.30411 -0.333285 0)
(1.25631 -0.495773 0)
(0.970972 -0.671836 0)
(0.723604 -0.570452 0)
(0.301716 -0.342427 0)
(-0.0856124 -0.289013 0)
(-0.163344 -0.38472 0)
(-0.284101 -0.353135 0)
(-0.303512 -0.332453 0)
(-0.21315 -0.504039 0)
(-0.126923 0.0530585 0)
(0.201186 1.01954 0)
(0.140218 1.31659 0)
(0.114187 1.12529 0)
(0.316962 0.728409 0)
(0.181896 0.688875 0)
(0.188093 0.61161 0)
(0.355334 0.365664 0)
(0.722668 0.310729 0)
(1.05955 0.173311 0)
(1.32546 0.0462529 0)
(1.4293 -0.0767732 0)
(1.29516 -0.11116 0)
(1.21806 -0.0891566 0)
(1.13464 -0.111505 0)
(0.816336 -0.137335 0)
(0.492398 0.013054 0)
(0.0973864 0.0917075 0)
(-0.176828 -0.025931 0)
(-0.15961 -0.288076 0)
(-0.24248 -0.310932 0)
(-0.169017 -0.399306 0)
(-0.198309 -0.442627 0)
(-0.48521 -0.0301783 0)
(0.111301 1.00253 0)
(0.0337828 1.20181 0)
(0.204579 1.14139 0)
(0.617771 0.6491 0)
(0.641498 0.491641 0)
(0.679976 0.586864 0)
(0.780083 0.0727797 0)
(1.05737 -0.0142188 0)
(1.22393 0.0349034 0)
(1.27355 0.107923 0)
(1.15904 0.0961201 0)
(1.01869 -0.0416107 0)
(0.972737 -0.0860347 0)
(0.886704 -0.0730007 0)
(0.576761 -0.064467 0)
(0.503089 0.14394 0)
(0.212368 0.39971 0)
(-0.00599323 0.141276 0)
(-0.0784065 -0.269989 0)
(-0.217439 -0.369213 0)
(-0.164394 -0.547998 0)
(-0.119145 -0.541189 0)
(-0.704111 0.17943 0)
(-0.147876 0.918612 0)
(-0.203938 1.05079 0)
(0.447407 1.14214 0)
(0.769456 0.806782 0)
(1.34097 0.0962413 0)
(1.16763 -0.0919316 0)
(1.03126 -0.100029 0)
(1.05101 -0.0831437 0)
(1.08247 -0.00790715 0)
(1.12847 0.102948 0)
(1.10413 0.0974125 0)
(0.945124 0.050525 0)
(0.821622 0.131123 0)
(0.533339 0.255124 0)
(0.427389 0.229911 0)
(0.494989 0.361677 0)
(0.234658 0.552774 0)
(-0.0746735 0.241236 0)
(-0.103312 -0.221386 0)
(-0.163681 -0.444075 0)
(-0.0306645 -0.605468 0)
(-0.0503926 -0.556425 0)
(-0.768501 0.413859 0)
(0.105501 1.00787 0)
(-0.691458 0.416163 0)
(0.627399 0.648432 0)
(0.753409 0.60248 0)
(0.814732 0.449519 0)
(0.919804 0.0478689 0)
(0.989675 0.0371542 0)
(1.08967 -0.0324999 0)
(1.14637 -0.00664393 0)
(1.16608 0.118123 0)
(1.08493 0.199038 0)
(0.863817 0.151365 0)
(0.634265 0.343614 0)
(0.567154 0.304481 0)
(0.532324 0.335472 0)
(0.477755 0.563304 0)
(0.251683 0.887447 0)
(0.00557581 0.51987 0)
(-0.117116 -0.190106 0)
(-0.111113 -0.34364 0)
(0.027373 -0.640381 0)
(0.0035494 -0.592555 0)
(-0.773062 0.442327 0)
(0.597245 1.23954 0)
(-0.24061 0.209282 0)
(0.597561 0.300718 0)
(0.821663 -0.166894 0)
(0.941515 -0.339147 0)
(1.18713 -0.44399 0)
(1.29405 -0.352801 0)
(1.39772 -0.235454 0)
(1.41519 -0.0142454 0)
(1.22915 0.343472 0)
(0.828557 0.428519 0)
(0.790909 0.468752 0)
(0.680406 0.493456 0)
(0.630687 0.350792 0)
(0.534361 0.389954 0)
(0.138733 0.886087 0)
(0.0596806 1.03694 0)
(-0.0810044 0.458891 0)
(0.207887 -0.177158 0)
(0.0489238 -0.418656 0)
(0.0554739 -0.6636 0)
(0.0460791 -0.584081 0)
(-0.740541 0.459125 0)
(0.714463 0.940493 0)
(0.166905 0.201228 0)
(0.634326 0.0358362 0)
(0.725447 -0.395998 0)
(0.733337 -0.36774 0)
(0.867084 -0.493584 0)
(0.908607 -0.467445 0)
(1.04104 -0.247899 0)
(1.25635 0.265148 0)
(0.980024 0.451146 0)
(0.572254 0.88707 0)
(0.59121 0.87577 0)
(0.617006 0.525251 0)
(0.5355 0.371766 0)
(0.418243 0.476589 0)
(-0.0757989 1.47021 0)
(-0.0938609 1.14421 0)
(-0.00976522 0.429876 0)
(0.0685689 -0.119629 0)
(0.0189162 -0.58207 0)
(0.162627 -0.686174 0)
(0.0173947 -0.589102 0)
(-0.638009 0.451553 0)
(0.66056 0.492064 0)
(0.423559 0.130036 0)
(0.370332 -0.32817 0)
(0.246352 -0.217384 0)
(0.42007 -0.212954 0)
(0.486245 -0.308232 0)
(0.517975 -0.155584 0)
(0.76328 0.295563 0)
(0.66313 0.239174 0)
(0.5602 0.334356 0)
(0.451002 0.795079 0)
(0.460541 0.810451 0)
(0.475548 0.511903 0)
(0.474941 0.53296 0)
(0.311162 0.840695 0)
(-0.447812 1.66045 0)
(-0.456278 0.835615 0)
(-0.0941514 0.270472 0)
(-0.0513211 -0.162039 0)
(0.0554132 -0.404312 0)
(0.200578 -0.659113 0)
(0.0626101 -0.587688 0)
(-0.52047 0.444596 0)
(0.322455 0.329558 0)
(0.201913 0.304666 0)
(0.0400891 -0.167854 0)
(-0.074616 -0.347961 0)
(0.178662 -0.540353 0)
(0.151905 -0.53682 0)
(0.00210537 -0.380049 0)
(0.157161 -0.0375419 0)
(-0.0379349 0.130868 0)
(0.157673 0.280445 0)
(0.125298 0.460625 0)
(0.284041 0.580164 0)
(0.360693 0.517731 0)
(0.166639 0.677471 0)
(-0.18275 1.16259 0)
(-0.557613 1.51656 0)
(-0.443579 0.550293 0)
(-0.0212185 0.187159 0)
(0.115164 -0.170294 0)
(0.18153 -0.559239 0)
(0.17462 -0.679243 0)
(-0.00575422 -0.736695 0)
(-0.403078 0.517954 0)
(-0.179168 0.178862 0)
(-0.22908 0.107847 0)
(-0.0944726 -0.237077 0)
(-0.179451 -0.401433 0)
(-0.222637 -0.425219 0)
(-0.304602 -0.27996 0)
(-0.415774 -0.127081 0)
(-0.331841 0.103848 0)
(-0.385699 0.197667 0)
(-0.134045 0.314048 0)
(-0.0199567 0.438774 0)
(0.207117 0.604843 0)
(-0.0522795 0.672859 0)
(-0.284699 0.973569 0)
(-0.299934 1.35694 0)
(-0.482245 1.42785 0)
(-0.204844 0.706923 0)
(-0.193093 -0.0347105 0)
(0.0953969 -0.39916 0)
(0.131553 -0.705376 0)
(0.128989 -0.668402 0)
(0.144802 -0.680966 0)
(-0.241756 0.85195 0)
(-0.0744188 0.307206 0)
(-0.201896 0.163475 0)
(-0.295752 -0.284742 0)
(-0.225299 -0.509339 0)
(-0.346113 -0.364416 0)
(-0.478656 -0.32417 0)
(-0.525146 -0.147945 0)
(-0.334297 -0.035735 0)
(-0.300195 0.110385 0)
(-0.193738 0.170275 0)
(-0.198978 0.5138 0)
(-0.0171009 0.667082 0)
(-0.34579 1.02521 0)
(-0.433028 1.56385 0)
(-0.413145 1.60369 0)
(-0.0882849 1.32467 0)
(-0.159433 0.581999 0)
(0.084197 -0.200078 0)
(0.185713 -0.511129 0)
(0.234608 -0.720382 0)
(0.258484 -0.587716 0)
(0.187606 -0.487562 0)
(0.0619019 0.818503 0)
(0.258632 0.74417 0)
(-0.0969294 0.316358 0)
(-0.233615 -0.0756913 0)
(-0.253457 -0.285519 0)
(-0.4133 -0.363437 0)
(-0.475559 -0.399615 0)
(-0.516014 -0.313119 0)
(-0.465027 -0.268027 0)
(-0.579153 -0.133619 0)
(-0.504754 0.0256883 0)
(-0.254585 0.326895 0)
(-0.225484 0.705292 0)
(-0.286869 0.931054 0)
(-0.33844 1.45221 0)
(-0.440407 1.52453 0)
(0.00685183 0.88288 0)
(0.138135 0.181312 0)
(0.334146 -0.357179 0)
(0.224013 -0.581306 0)
(0.315187 -0.586027 0)
(0.354833 -0.567657 0)
(0.265595 -0.483106 0)
(0.125443 0.479811 0)
(0.234291 0.848501 0)
(0.0186438 0.513593 0)
(0.126504 0.382944 0)
(-0.338197 -0.0858191 0)
(-0.418661 -0.249871 0)
(-0.546498 -0.233778 0)
(-0.583054 -0.228972 0)
(-0.561951 -0.165425 0)
(-0.647495 -0.13723 0)
(-0.698236 0.0995375 0)
(-0.691047 0.211693 0)
(-0.631443 0.635768 0)
(-0.455581 0.747673 0)
(-0.240202 1.08029 0)
(-0.305597 1.40984 0)
(0.250048 0.854597 0)
(0.568327 0.0984219 0)
(0.549153 -0.273327 0)
(0.420364 -0.480188 0)
(0.368116 -0.459653 0)
(0.330141 -0.411345 0)
(0.175963 -0.395011 0)
(0.0922504 0.388528 0)
(0.0923608 1.09403 0)
(-0.143954 0.95896 0)
(-0.102604 0.558693 0)
(-0.532107 0.281671 0)
(-0.36225 0.00338709 0)
(-0.382269 -0.0897553 0)
(-0.496013 -0.10546 0)
(-0.556708 -0.0615622 0)
(-0.670569 0.0105758 0)
(-0.701094 0.113605 0)
(-0.638198 0.234855 0)
(-0.718728 0.542688 0)
(-0.443837 0.769108 0)
(-0.120409 0.845314 0)
(-0.00415898 0.995972 0)
(0.507192 0.508435 0)
(0.778714 -0.213203 0)
(0.72275 -0.452449 0)
(0.483406 -0.516605 0)
(0.316462 -0.426777 0)
(0.280905 -0.34543 0)
(0.175564 -0.29358 0)
(0.0125472 0.371076 0)
(-0.0961044 1.23939 0)
(-0.127852 1.02725 0)
(-0.263125 0.576318 0)
(-0.537182 0.413796 0)
(-0.305609 0.141836 0)
(-0.277596 0.0349831 0)
(-0.336983 -0.00507896 0)
(-0.35191 0.0140966 0)
(-0.416772 0.0168596 0)
(-0.414728 0.0299178 0)
(-0.305825 0.0739002 0)
(-0.415495 0.435286 0)
(-0.224538 0.678464 0)
(-0.119233 0.636046 0)
(0.25301 0.764744 0)
(0.665344 0.312425 0)
(0.783226 0.0492825 0)
(0.606861 -0.304158 0)
(0.382353 -0.381444 0)
(0.369287 -0.343861 0)
(0.284275 -0.317942 0)
(0.14503 -0.20423 0)
(-0.0625429 0.422355 0)
(-0.202452 1.4833 0)
(-0.104722 1.1548 0)
(-0.372921 0.608513 0)
(-0.510137 0.41419 0)
(-0.222048 0.175638 0)
(-0.279929 -0.032688 0)
(-0.313092 -0.0348211 0)
(-0.143356 0.0339594 0)
(-0.125846 0.0810126 0)
(-0.100291 0.110987 0)
(-0.104966 0.136358 0)
(-0.0780578 0.289737 0)
(0.0316102 0.375453 0)
(0.18436 0.388805 0)
(0.331687 0.464977 0)
(0.502367 0.254104 0)
(0.666162 -0.19885 0)
(0.488616 -0.321184 0)
(0.437785 -0.249025 0)
(0.241388 -0.275505 0)
(0.25003 -0.328205 0)
(0.184222 -0.237629 0)
(-0.11266 0.505284 0)
(-0.199495 1.6701 0)
(-0.173527 1.22018 0)
(-0.360536 0.606027 0)
(-0.294412 0.267657 0)
(-0.266692 0.0209329 0)
(-0.241158 -0.0929097 0)
(-0.12049 -0.0668115 0)
(-0.130704 -0.0148289 0)
(-0.0509881 -0.0100216 0)
(-0.022352 -0.0309321 0)
(0.00369298 0.0312907 0)
(0.0263236 0.135722 0)
(0.0538422 0.15613 0)
(0.214763 0.329965 0)
(0.606325 0.188961 0)
(0.644066 0.154642 0)
(0.558543 0.103782 0)
(0.461198 0.023178 0)
(0.37992 -0.157084 0)
(0.217062 -0.193728 0)
(0.270165 -0.226122 0)
(0.291139 -0.221259 0)
(-0.030614 0.617097 0)
(0.0449089 1.88955 0)
(-0.155096 1.38391 0)
(-0.347357 0.793211 0)
(-0.34029 0.235389 0)
(-0.202377 -0.0492684 0)
(-0.114561 -0.0632302 0)
(-0.109376 -0.126553 0)
(-0.0648195 -0.0706326 0)
(-0.025196 -0.0311124 0)
(-0.00762935 0.0033155 0)
(-0.00393303 0.0132041 0)
(0.0582827 0.0411053 0)
(0.23391 0.118387 0)
(0.310728 0.310214 0)
(0.367091 0.243024 0)
(0.482278 -0.0968704 0)
(0.432977 -0.0922481 0)
(0.302868 -0.129874 0)
(0.318947 -0.128467 0)
(0.276094 -0.101194 0)
(0.305488 -0.104748 0)
(0.335476 -0.185654 0)
(-0.0843627 1.10394 0)
(-0.0472814 1.96606 0)
(-0.166184 1.44672 0)
(-0.264939 0.821676 0)
(-0.355859 0.157823 0)
(-0.121699 -0.0380838 0)
(-0.0827284 -0.174187 0)
(-0.0165937 -0.139012 0)
(-0.00471747 -0.175953 0)
(0.0215386 -0.134075 0)
(0.0173304 -0.0749019 0)
(0.0525173 -0.0697061 0)
(0.102436 0.0479445 0)
(0.280221 -0.00875576 0)
(0.316209 0.0480334 0)
(0.336422 0.071754 0)
(0.395725 0.0152554 0)
(0.368234 -0.0614154 0)
(0.361048 -0.0365761 0)
(0.350311 0.0163378 0)
(0.322626 -0.018766 0)
(0.275491 -0.0529534 0)
(0.249535 -0.125126 0)
(-0.160458 1.31439 0)
(-0.196993 2.03155 0)
(-0.274355 1.52422 0)
(-0.278473 0.791271 0)
(-0.239303 0.137968 0)
(0.010037 -0.152621 0)
(0.0703925 -0.162663 0)
(0.0292648 -0.108873 0)
(-0.00557875 -0.100589 0)
(0.0835546 -0.0891976 0)
(0.0474283 -0.04385 0)
(0.118465 -0.0425146 0)
(0.113073 -0.00212358 0)
(0.144788 0.0176115 0)
(0.310793 -0.0325191 0)
(0.208612 -0.0057163 0)
(0.243983 -0.0427878 0)
(0.418419 -0.134556 0)
(0.42514 -0.059731 0)
(0.363848 -0.0952095 0)