/*--------------------------------*- C++ -*----------------------------------*\
| =========                 |                                                 |
| \\      /  F ield         | foam-extend: Open Source CFD                    |
|  \\    /   O peration     | Version:     4.1                                |
|   \\  /    A nd           | Web:         http://www.foam-extend.org         |
|    \\/     M anipulation  |                                                 |
\*---------------------------------------------------------------------------*/
FoamFile
{
    version     2.0;
    format      ascii;
    class       volScalarField;
    location    "0.45";
    object      alpha1;
}
// * * * * * * * * * * * * * * * * * * * * * * * * * * * * * * * * * * * * * //

dimensions      [0 0 0 0 0 0 0];

internalField   nonuniform List<scalar> 
2268
(
1
1
1
1
1
1
1
0.999998
0.999999
0.999975
0.999986
0.99999
0.999995
0.999997
0.999999
0.999999
0.999999
0.999997
0.999983
0.999745
0.999018
0.975667
0.546527
1
1
1
1
0.999998
0.999995
0.999998
0.999979
0.999985
0.999851
0.99991
0.999909
0.999931
0.999959
0.999986
0.999994
0.999997
0.999957
0.999923
0.99977
0.999262
0.992752
0.982471
1
1
1
0.999999
0.999972
0.999952
0.999975
0.99986
0.999894
0.999542
0.998761
0.998899
0.999229
0.999681
0.999925
0.99998
0.999976
0.999877
0.999685
0.999076
0.990474
0.98411
0.975477
1
1
1
0.999985
0.999789
0.999689
0.999803
0.999319
0.999468
0.998254
0.995555
0.993494
0.995617
0.998107
0.99916
0.999663
0.999811
0.999811
0.999785
0.999623
0.993418
0.978277
0.968874
1
0.999997
0.999996
0.999875
0.998916
0.998618
0.998867
0.997325
0.997554
0.994115
0.984323
0.984091
0.9896
0.991323
0.995106
0.997652
0.998686
0.999149
0.999268
0.999253
0.993199
0.971843
0.96254
0.999998
0.999958
0.999961
0.999208
0.995877
0.995403
0.993589
0.991835
0.987746
0.981834
0.971888
0.968798
0.971088
0.977629
0.98294
0.990151
0.992591
0.994448
0.996548
0.998303
0.993454
0.966931
0.954912
0.999977
0.999574
0.999654
0.996018
0.987205
0.986475
0.978158
0.974017
0.958264
0.948779
0.947551
0.917701
0.927349
0.96379
0.952446
0.96695
0.973078
0.977578
0.982546
0.994685
0.99239
0.958821
0.949214
0.999784
0.996844
0.997625
0.98328
0.965871
0.965298
0.944246
0.935205
0.910777
0.899705
0.907257
0.894734
0.902635
0.906561
0.912218
0.926728
0.913842
0.916768
0.940198
0.986624
0.991084
0.961864
0.938653
0.0167573
0.036436
0.0662172
0.111733
0.166856
0.212013
0.24466
0.273082
0.30693
0.309464
0.310077
0.341642
0.365447
0.387416
0.387398
0.370046
0.264727
0.141972
0.148088
0.0128566
0.0127812
0.0134966
0.0237332
0.0427673
0.0701318
0.108348
0.215623
0.278678
0.288013
0.280224
0.328876
0.377785
0.484286
0.44853
0.392484
0.332827
0.179408
0.215499
0.00934278
0.00462429
0.00239421
0.00352535
0.0114572
0.0270824
0.0775117
0.188025
0.241969
0.273368
0.321007
0.250887
0.451939
0.623217
0.600732
0.481959
0.386404
0.28135
0.257028
0.0080477
0.0029627
0.00163648
0.00164694
0.00271992
0.00392044
0.0248526
0.151595
0.23771
0.280215
0.49048
0.363148
0.575116
0.665937
0.672966
0.614932
0.44961
0.356884
0.288242
0.00732382
0.00316472
0.00295418
0.00272797
0.00317321
0.00572231
0.0475126
0.180213
0.327251
0.37378
0.489686
0.545371
0.653142
0.699932
0.701797
0.676007
0.542821
0.416131
0.304584
0.00658226
0.00599937
0.00862395
0.0135014
0.00821767
0.0145843
0.0767415
0.140953
0.232294
0.304939
0.476078
0.584221
0.684153
0.711204
0.711798
0.696358
0.605106
0.469254
0.324856
0.00543368
0.0131112
0.0318544
0.0592546
0.020225
0.0115432
0.0268462
0.0817317
0.447662
0.37008
0.539817
0.651267
0.704651
0.714766
0.714271
0.70302
0.640281
0.508933
0.341892
0.00366017
0.0708578
0.121094
0.185215
0.0863805
0.0812795
0.0941951
0.182442
0.689471
0.630914
0.690161
0.721966
0.715804
0.713724
0.712938
0.70298
0.659373
0.550159
0.363701
0.997701
0.973488
0.981888
0.916757
0.896661
0.895828
0.860517
0.827636
0.790822
0.787389
0.807325
0.825136
0.803149
0.780383
0.789244
0.764675
0.72271
0.701774
0.724095
0.830806
0.963024
0.961141
0.941036
0.98099
0.859673
0.902141
0.635748
0.698626
0.690557
0.59669
0.558127
0.527514
0.548671
0.625825
0.654295
0.640564
0.619973
0.587203
0.545858
0.498357
0.481489
0.511104
0.659528
0.892588
0.955638
0.943832
0.88079
0.638332
0.628606
0.285519
0.390483
0.380757
0.307918
0.296777
0.262339
0.273489
0.325614
0.415844
0.522885
0.580775
0.577997
0.548978
0.476685
0.414375
0.415798
0.48991
0.789576
0.924137
0.949742
0.698513
0.361387
0.295714
0.114344
0.181638
0.17343
0.157544
0.140931
0.118856
0.0976635
0.107523
0.149424
0.269867
0.495266
0.54545
0.515498
0.452669
0.380721
0.37872
0.445053
0.662341
0.854705
0.928718
0.692531
0.252514
0.145969
0.0658767
0.074969
0.0802212
0.0960051
0.070496
0.0685037
0.0491894
0.0491409
0.0703282
0.131104
0.277395
0.457325
0.470475
0.401446
0.326449
0.334292
0.355491
0.427682
0.583921
0.736659
0.53035
0.202399
0.0878526
0.0400005
0.0331021
0.0447804
0.0619981
0.0446755
0.0448807
0.0323116
0.0326964
0.0398855
0.0754123
0.213694
0.368996
0.327714
0.194928
0.148391
0.14981
0.194883
0.282071
0.409138
0.547527
0.170578
0.0992794
0.0539561
0.0254996
0.0203307
0.0295187
0.0366815
0.0301337
0.027444
0.0189959
0.0235793
0.0245814
0.0527296
0.12106
0.186224
0.120209
0.105002
0.0714599
0.0272606
0.0638856
0.121396
0.221412
0.362285
0.0363219
0.0314085
0.0215234
0.0117545
0.0120229
0.0166901
0.0221174
0.0193413
0.0127948
0.00907212
0.0163345
0.0110924
0.0229604
0.0353106
0.0558607
0.0241348
0.122868
0.0231244
0.00619683
0.00935422
0.0437134
0.129891
0.175157
0.0175723
0.0104504
0.00601504
0.00422087
0.00457311
0.00853961
0.0101733
0.00924407
0.00431836
0.00438335
0.0130857
0.00509009
0.0092401
0.0118909
0.0197899
0.00722571
0.0168746
0.00571021
0.00495451
0.00510091
0.00928128
0.0311607
0.0373382
0.0108779
0.00440786
0.00284464
0.00204618
0.0013507
0.00293573
0.00344894
0.00258962
0.001219
0.00296764
0.0125638
0.00366043
0.00298409
0.00388834
0.00489932
0.00151006
0.00146836
0.00198546
0.00409254
0.00359019
0.00567667
0.00983758
0.0112985
0.00661253
0.00198005
0.00129539
0.000886716
0.00033017
0.000726907
0.000746924
0.000357033
0.000467234
0.00281563
0.0135211
0.00335821
0.00067531
0.00089052
0.00151872
0.00117081
0.00181633
0.00198658
0.00123567
0.0014258
0.00208588
0.00311488
0.00614583
0.00379008
0.00107834
0.000568681
0.000283543
0.000136249
0.000104133
8.547e-05
4.46018e-05
0.000402671
0.00355348
0.0165483
0.00598461
0.000372138
0.000299992
0.000429624
0.000558803
0.000716566
0.000874943
0.000823039
0.000881032
0.000686522
0.000974981
0.00176785
0.00186509
0.000532218
0.000252687
5.38502e-05
3.35488e-05
1.06857e-05
7.49573e-06
1.31408e-05
0.000417887
0.00425977
0.0215443
0.00860548
0.000576752
8.7935e-05
5.70516e-05
0.000155776
0.000436018
0.000577328
0.000533759
0.000359834
9.94286e-05
4.18937e-05
3.7376e-05
0.000798467
0.00020582
0.000102633
7.97694e-06
1.59631e-06
1.2496e-06
9.16271e-07
3.83599e-06
0.000327928
0.00427598
0.0258692
0.0264577
0.0069663
0.000250456
2.3152e-05
4.53562e-05
0.000189785
0.00027738
0.000303014
0.000195526
4.45638e-05
5.54556e-06
2.23362e-06
0.000208123
2.06397e-05
3.41342e-05
8.80589e-07
3.686e-08
1.53454e-07
2.04973e-07
8.36255e-07
0.000124949
0.00310214
0.0267224
0.0533546
0.0175223
0.000824543
6.06754e-05
1.64439e-05
5.09512e-05
5.69303e-05
8.38993e-05
8.97795e-05
1.46413e-05
2.4222e-06
7.73595e-07
5.90324e-05
7.66199e-06
1.14975e-05
1.17326e-07
5.70603e-09
4.93866e-08
6.90848e-08
2.89318e-07
0.000197855
0.00348884
0.0211706
0.0769611
0.0207805
0.00188773
0.000102516
2.33118e-06
2.78656e-06
3.68969e-06
5.77516e-06
7.63778e-06
8.13596e-07
2.83947e-07
5.53022e-07
9.02748e-06
1.92877e-06
3.35461e-06
1.75406e-08
1.91559e-09
1.2104e-08
1.16668e-08
1.08087e-07
1.88837e-05
0.000528393
0.0056607
0.0573438
0.00499412
0.000663407
1.56619e-05
3.4691e-07
1.40373e-07
1.00752e-07
1.02828e-07
1.01366e-07
7.85976e-08
1.82523e-08
1.09706e-07
8.33455e-07
4.41402e-07
9.28783e-07
6.96197e-09
3.40482e-10
1.93726e-09
2.55103e-09
6.66841e-08
2.12096e-07
6.98502e-06
0.000355438
0.00332937
5.19937e-05
2.05066e-07
4.54407e-07
8.94526e-08
2.38989e-08
1.17236e-08
9.01019e-09
9.70255e-09
7.97871e-09
3.4495e-09
1.19789e-08
5.06269e-09
1.79146e-08
2.2735e-07
5.1173e-09
7.58928e-11
1.10497e-10
8.2193e-11
4.69584e-10
4.38567e-09
2.30097e-08
7.8164e-08
3.74741e-07
1.39251e-08
1.04648e-08
1.35023e-08
1.99301e-08
8.35732e-09
3.0755e-09
1.45132e-09
1.22951e-09
5.93092e-10
4.83652e-10
1.29597e-09
6.09139e-10
2.89124e-09
5.44469e-08
3.6755e-09
1.50371e-11
1.66934e-11
1.87179e-11
5.97209e-11
1.20895e-10
7.01564e-11
1.85252e-10
4.20095e-10
4.54671e-10
8.49741e-10
1.125e-09
1.27748e-09
1.39432e-09
8.66733e-10
2.40003e-10
1.03972e-10
4.55463e-11
3.44759e-11
7.01471e-11
5.69269e-11
1.13358e-10
1.64514e-10
1.75299e-12
1.14697e-12
6.81288e-13
5.15077e-12
1.71547e-11
5.53526e-11
1.93512e-11
7.19225e-12
2.06881e-11
3.46216e-11
5.05523e-11
6.9101e-11
6.48425e-11
6.6977e-11
3.32941e-11
2.00376e-11
3.17019e-12
2.08472e-12
1.73311e-12
7.67814e-12
5.78576e-12
1.20043e-12
2.92888e-12
1.04916e-13
1.05971e-13
9.62008e-14
6.36935e-13
1.55936e-12
7.12586e-12
1.09388e-11
5.278e-13
7.9603e-14
3.42504e-13
6.74683e-13
1.27737e-12
2.5977e-12
4.63896e-12
1.89265e-12
1.73123e-12
1.5693e-13
9.81437e-14
2.95042e-13
9.07663e-13
1.06981e-12
6.7224e-14
1.30451e-14
1.03806e-14
1.52656e-14
2.48135e-14
3.38618e-14
9.99201e-15
9.27036e-15
1.02141e-14
8.38218e-15
1.11577e-14
2.53686e-14
4.14113e-14
4.87943e-14
1.90847e-13
2.90934e-13
1.53766e-13
9.4813e-14
1.4988e-14
4.77396e-15
1.09912e-14
6.4504e-14
1.28009e-13
1.11577e-14
9.38138e-15
9.4369e-15
1.28231e-14
1.15463e-14
1.21569e-14
8.99281e-15
7.38298e-15
7.99361e-15
7.82707e-15
7.66054e-15
9.49241e-15
9.71445e-15
9.27036e-15
1.2601e-14
1.68754e-14
1.4877e-14
6.66134e-15
3.60822e-15
6.66134e-16
3.16414e-15
1.16018e-14
1.68754e-14
0
9.49241e-15
7.82707e-15
1.06581e-14
9.9365e-15
7.71605e-15
9.10383e-15
6.99441e-15
9.9365e-15
9.32587e-15
7.21645e-15
9.65894e-15
9.27036e-15
7.10543e-15
7.32747e-15
5.05151e-15
5.77316e-15
3.60822e-15
1.94289e-15
1.66533e-16
5.55112e-16
9.27036e-15
8.21565e-15
0
9.4369e-15
7.10543e-15
9.15934e-15
9.4369e-15
7.77156e-15
7.49401e-15
7.93809e-15
8.49321e-15
8.54872e-15
8.16014e-15
9.65894e-15
1.07137e-14
8.04912e-15
7.82707e-15
6.99441e-15
4.55191e-15
5.10703e-15
4.66294e-15
3.66374e-15
1.55431e-15
9.38138e-15
9.10383e-15
0
8.21565e-15
9.21485e-15
1.08802e-14
1.0103e-14
1.04916e-14
7.99361e-15
6.93889e-15
9.27036e-15
7.10543e-15
7.38298e-15
1.03251e-14
1.03251e-14
7.60503e-15
8.49321e-15
8.21565e-15
4.94049e-15
2.94209e-15
4.21885e-15
4.66294e-15
6.10623e-16
6.4948e-15
8.99281e-15
0
8.43769e-15
8.65974e-15
1.04916e-14
1.14353e-14
1.15463e-14
7.21645e-15
6.4948e-15
8.49321e-15
9.04832e-15
9.76996e-15
1.13798e-14
9.15934e-15
8.9373e-15
8.27116e-15
6.05072e-15
5.44009e-15
3.66374e-15
4.44089e-15
5.38458e-15
3.88578e-16
6.77236e-15
1.06581e-14
0
9.82547e-15
7.60503e-15
9.99201e-15
1.12688e-14
1.08247e-14
7.04992e-15
7.16094e-15
1.01585e-14
6.88338e-15
9.4369e-15
1.05471e-14
9.38138e-15
1.04361e-14
8.54872e-15
9.54792e-15
3.83027e-15
4.82947e-15
2.10942e-15
1.77636e-15
9.4369e-16
8.38218e-15
1.02696e-14
0
1.03251e-14
8.38218e-15
9.4369e-15
9.9365e-15
1.07137e-14
7.93809e-15
6.05072e-15
8.21565e-15
8.65974e-15
7.60503e-15
9.32587e-15
1.16018e-14
8.54872e-15
9.60343e-15
9.82547e-15
7.93809e-15
6.55032e-15
2.44249e-15
1.55431e-15
6.66134e-16
5.88418e-15
8.88178e-15
0
1.03806e-14
7.04992e-15
8.21565e-15
6.60583e-15
1.08247e-14
8.49321e-15
7.21645e-15
9.04832e-15
9.21485e-15
8.21565e-15
1.02696e-14
1.12133e-14
9.65894e-15
9.32587e-15
1.16018e-14
8.77076e-15
8.10463e-15
3.88578e-15
1.83187e-15
0
4.38538e-15
7.88258e-15
0
7.77156e-15
7.21645e-15
7.16094e-15
6.77236e-15
1.04361e-14
1.07137e-14
7.43849e-15
9.21485e-15
8.99281e-15
9.38138e-15
8.71525e-15
9.88098e-15
1.03806e-14
1.03251e-14
1.11577e-14
9.88098e-15
6.60583e-15
2.72005e-15
1.60982e-15
6.10623e-16
5.10703e-15
4.88498e-15
0
6.99441e-15
8.16014e-15
8.60423e-15
6.38378e-15
1.11577e-14
1.06581e-14
6.66134e-15
1.15463e-14
7.88258e-15
8.32667e-15
7.88258e-15
9.71445e-15
9.71445e-15
9.9365e-15
8.88178e-15
8.77076e-15
6.88338e-15
4.71845e-15
1.16573e-15
0
7.99361e-15
4.10783e-15
0
5.55112e-15
5.44009e-15
6.88338e-15
4.38538e-15
8.04912e-15
8.99281e-15
5.27356e-15
1.08247e-14
7.32747e-15
9.65894e-15
7.10543e-15
8.38218e-15
7.43849e-15
9.65894e-15
8.27116e-15
9.15934e-15
6.99441e-15
4.21885e-15
4.996e-16
0
9.54792e-15
2.77556e-15
0
3.16414e-15
5.16254e-15
5.60663e-15
6.82787e-15
1.09357e-14
6.27276e-15
5.16254e-15
7.10543e-15
8.32667e-15
9.10383e-15
7.04992e-15
4.71845e-15
5.16254e-15
9.04832e-15
6.82787e-15
1.03806e-14
8.16014e-15
5.38458e-15
2.83107e-15
4.44089e-16
8.10463e-15
2.77556e-16
0
3.27516e-15
2.66454e-15
6.27276e-15
8.77076e-15
5.66214e-15
3.38618e-15
6.60583e-15
6.77236e-15
7.16094e-15
6.43929e-15
4.4964e-15
1.4988e-15
2.72005e-15
8.71525e-15
4.44089e-15
1.04361e-14
6.10623e-15
6.27276e-15
2.38698e-15
0
6.71685e-15
4.44089e-16
0
4.55191e-15
2.05391e-15
6.32827e-15
7.16094e-15
4.71845e-15
8.88178e-16
4.94049e-15
3.88578e-15
3.44169e-15
3.44169e-15
2.83107e-15
1.38778e-15
1.22125e-15
4.55191e-15
3.05311e-15
5.38458e-15
5.21805e-15
5.93969e-15
1.88738e-15
9.99201e-16
9.49241e-15
1.33227e-15
0
6.82787e-15
4.996e-15
3.88578e-15
6.10623e-15
3.16414e-15
0
3.4972e-15
6.66134e-16
2.88658e-15
2.77556e-15
2.10942e-15
2.72005e-15
1.05471e-15
3.88578e-15
4.996e-16
2.94209e-15
2.27596e-15
3.33067e-15
2.60902e-15
1.11022e-15
7.88258e-15
0
0
9.82547e-15
5.82867e-15
3.60822e-15
5.88418e-15
4.05231e-15
4.996e-16
4.16334e-15
1.77636e-15
3.33067e-15
3.38618e-15
1.60982e-15
6.32827e-15
1.60982e-15
4.10783e-15
9.4369e-16
3.16414e-15
2.60902e-15
4.21885e-15
4.05231e-15
1.11022e-15
4.27436e-15
0
0
1.38223e-14
7.27196e-15
7.16094e-15
1.03251e-14
4.44089e-15
2.498e-15
5.55112e-15
1.9984e-15
5.05151e-15
1.60982e-15
2.60902e-15
5.88418e-15
5.44009e-15
4.27436e-15
3.77476e-15
6.16174e-15
3.77476e-15
3.71925e-15
5.88418e-15
3.88578e-15
3.38618e-15
0
2.05391e-15
1.54321e-14
1.16018e-14
9.4369e-15
1.16018e-14
5.10703e-15
2.9976e-15
4.88498e-15
3.66374e-15
4.55191e-15
2.22045e-15
1.66533e-15
8.71525e-15
5.60663e-15
6.21725e-15
6.38378e-15
9.32587e-15
4.4964e-15
5.16254e-15
4.38538e-15
1.13243e-14
1.83187e-15
0
4.44089e-15
1.62093e-14
1.33227e-14
1.23235e-14
1.33782e-14
4.82947e-15
6.4948e-15
5.66214e-15
6.88338e-15
6.77236e-15
5.60663e-15
6.32827e-15
1.02696e-14
7.71605e-15
7.49401e-15
8.9373e-15
1.10467e-14
8.04912e-15
9.54792e-15
8.49321e-15
1.45439e-14
0
0.926324
0.916259
0.823816
0.109042
0.931122
0.922352
0.888092
0.851658
0.949587
0.94431
0.941435
0.935475
0.942679
0.946955
0.948015
0.947774
0.846429
0.876677
0.886235
0.888777
0.654845
0.674521
0.672302
0.673245
0.428741
0.430694
0.419277
0.386898
0.207809
0.206798
0.19292
0.162747
0.0582548
0.064903
0.0572818
0.0449345
0.0166651
0.0185285
0.0183177
0.0211503
0.0193086
0.0202552
0.0149717
0.00784172
0.00280384
0.00124839
0.000805836
0.000756111
6.48875e-05
2.07289e-05
1.38636e-05
1.98566e-05
1.82847e-06
2.7977e-06
2.69122e-06
3.07712e-06
2.4181e-07
3.55215e-07
4.74357e-07
8.42472e-07
6.2075e-08
5.81793e-08
9.93252e-08
1.83376e-07
2.25316e-08
1.77327e-08
1.86948e-08
3.93357e-08
4.61029e-09
4.00649e-09
4.16898e-09
7.83747e-09
5.90251e-10
7.62915e-10
1.0667e-09
9.90328e-10
7.17801e-11
8.00686e-11
1.23977e-10
9.26108e-11
9.23517e-12
5.33679e-12
1.08971e-11
1.15014e-11
8.27283e-13
7.73326e-13
1.41764e-12
1.96376e-12
7.93254e-14
1.3517e-13
2.41418e-13
3.37064e-13
8.54872e-15
1.37113e-14
2.226e-14
2.84217e-14
5.60663e-15
6.4948e-15
5.10703e-15
4.4964e-15
4.60743e-15
4.05231e-15
2.77556e-15
3.60822e-15
4.21885e-15
4.05231e-15
3.27516e-15
3.66374e-15
2.88658e-15
3.94129e-15
4.55191e-15
4.60743e-15
3.05311e-15
2.55351e-15
3.10862e-15
1.33227e-15
2.88658e-15
3.44169e-15
3.88578e-15
1.16573e-15
1.9984e-15
1.16573e-15
3.4972e-15
1.60982e-15
2.27596e-15
2.16493e-15
2.10942e-15
2.05391e-15
1.33227e-15
1.22125e-15
2.44249e-15
1.33227e-15
3.66374e-15
4.44089e-16
2.10942e-15
2.77556e-15
0
0
4.44089e-15
3.83027e-15
0
0
2.94209e-15
2.10942e-15
8.88178e-16
0
5.55112e-16
9.4369e-16
1.33227e-15
0
3.33067e-16
7.77156e-16
1.38778e-15
0
9.4369e-16
4.32987e-15
3.83027e-15
3.27516e-15
4.10783e-15
6.71685e-15
3.10862e-15
1.55431e-15
5.82867e-15
7.93809e-15
3.66374e-15
0
0
0
0.117747
0.16237
0.250091
0.683723
0.274983
0.248705
0.391268
0.503651
0.718463
0.779289
0.776581
0.757847
0.71454
0.689353
0.690577
0.686137
0.651263
0.572553
0.392924
0.861365
0.830875
0.739134
0.830235
0.781366
0.684829
0.725729
0.792771
0.84007
0.837392
0.815145
0.75965
0.617654
0.560441
0.586261
0.609176
0.587006
0.543374
0.404975
0.935399
0.935339
0.9323
0.934914
0.93364
0.930998
0.927065
0.916225
0.894341
0.831534
0.714439
0.499635
0.377214
0.352493
0.364127
0.42227
0.504027
0.514923
0.427826
0.938111
0.904609
0.894555
0.902674
0.901629
0.899724
0.889714
0.859022
0.73262
0.631471
0.49491
0.27098
0.2105
0.230077
0.269588
0.384982
0.467889
0.497908
0.431076
0.82863
0.713153
0.768827
0.740971
0.729143
0.721776
0.715949
0.667944
0.452113
0.241161
0.13471
0.11339
0.115516
0.151851
0.170151
0.316732
0.367619
0.470732
0.425136
0.621532
0.480611
0.419399
0.323982
0.325436
0.403239
0.460856
0.44743
0.314433
0.150371
0.0645804
0.0547362
0.0575969
0.0582084
0.0635568
0.199066
0.228704
0.426354
0.414465
0.299093
0.198311
0.152468
0.146148
0.165666
0.249241
0.30192
0.292978
0.195002
0.0811619
0.0292679
0.0211079
0.0215049
0.0176744
0.0213099
0.0869674
0.149811
0.394964
0.401828
0.100265
0.0770781
0.0938296
0.0983295
0.115321
0.150986
0.202115
0.19018
0.104536
0.0350933
0.0110461
0.00615657
0.00690083
0.0123853
0.0139476
0.0347781
0.127548
0.370881
0.388609
0.0346029
0.038782
0.0712333
0.062703
0.071528
0.138977
0.155657
0.116725
0.0369957
0.00746988
0.00229395
0.00167341
0.00198703
0.00501529
0.00798716
0.0263413
0.107356
0.333752
0.374494
0.0273868
0.0284244
0.0543825
0.0520033
0.0316924
0.0571659
0.094024
0.0842784
0.0412516
0.00710984
0.00100885
0.000684524
0.00100616
0.00327577
0.00727332
0.0226502
0.0749368
0.269107
0.358439
0.00495315
0.00275721
0.0115354
0.0131058
0.00503452
0.00627349
0.0259336
0.0284294
0.016965
0.00405136
0.000684555
0.000347093
0.000541183
0.00208524
0.00750076
0.0207281
0.0549481
0.194646
0.340409
0.000304114
0.000137293
0.000207394
0.00128114
0.000473888
0.00133486
0.00614974
0.00622057
0.00275901
0.000826066
0.000211799
0.00019732
0.000245804
0.000642351
0.0058106
0.0176143
0.045899
0.147302
0.321668
1.05829e-05
1.28894e-05
1.97769e-05
5.73176e-05
8.37608e-05
0.000223976
0.00073981
0.000321536
0.000253564
0.000188298
0.000248482
0.000660312
0.00111468
0.00129069
0.00371359
0.0131328
0.0392947
0.11719
0.302956
3.15928e-06
3.54862e-06
3.62199e-06
3.99629e-06
1.51655e-05
2.13034e-05
4.44643e-05
4.65906e-05
0.000102459
0.000195856
0.000398865
0.000988032
0.00195329
0.00177129
0.00295842
0.010138
0.0333988
0.0934548
0.283473
8.33897e-07
8.54946e-07
1.22269e-06
1.71384e-06
4.94488e-06
7.87662e-06
1.80708e-05
4.68289e-05
0.000138299
0.000254742
0.000492293
0.00113711
0.00227924
0.00203302
0.0026698
0.00803992
0.026569
0.0661998
0.260272
2.16133e-07
2.78014e-07
6.55108e-07
9.79774e-07
3.02218e-06
3.73538e-06
9.22342e-06
1.75053e-05
3.65995e-05
0.000136715
0.0003899
0.00103513
0.00275089
0.00236569
0.00261746
0.00625398
0.0195902
0.0398324
0.234179
7.15882e-08
1.26494e-07
3.12407e-07
3.92204e-07
1.16753e-06
8.3163e-07
2.05349e-06
5.3358e-06
1.17179e-05
6.65785e-05
0.000161264
0.000435043
0.00234777
0.00275991
0.00265626
0.00460306
0.0139332
0.0266277
0.208085
1.70565e-08
2.56481e-08
8.23155e-08
8.41795e-08
2.10593e-07
2.54257e-07
6.26211e-07
2.67834e-06
6.04292e-06
1.76468e-05
3.76276e-05
7.39275e-05
0.000755038
0.00267912
0.00263527
0.00365513
0.00975125
0.0169401
0.181597
3.3868e-09
7.45255e-09
7.81968e-09
1.11032e-08
5.62245e-08
1.32421e-07
4.2951e-07
1.90564e-06
3.02044e-06
7.33544e-06
1.64987e-05
2.28179e-05
0.000349398
0.00205575
0.00260887
0.00295634
0.00658567
0.00808512
0.153709
1.28212e-10
4.19288e-10
9.47337e-10
3.11688e-09
1.59046e-08
6.71863e-08
2.1529e-07
6.72734e-07
1.20888e-06
2.58006e-06
5.27845e-06
7.89085e-06
6.08015e-05
0.000817501
0.00240736
0.00258101
0.00473978
0.00392718
0.12737
2.32396e-11
6.02798e-11
2.09205e-10
5.31427e-10
2.18941e-09
2.27489e-08
9.55513e-08
2.0295e-07
4.4217e-07
8.7742e-07
2.13453e-06
4.5475e-06
2.55591e-05
0.000212707
0.00162325
0.00241314
0.00359852
0.00285104
0.104918
3.10796e-12
5.61701e-12
3.68008e-11
1.78009e-10
8.03332e-10
2.70218e-09
9.28394e-09
3.38457e-08
1.46355e-07
3.09363e-07
7.60152e-07
1.85519e-06
7.40879e-06
4.59498e-05
0.000694026
0.0023243
0.0029153
0.00228591
0.0890765
3.78253e-13
1.30873e-12
7.65676e-12
2.68174e-11
1.85461e-10
6.80685e-10
1.60767e-09
7.6178e-09
3.16531e-08
5.77319e-08
1.93093e-07
1.06858e-06
8.69746e-06
4.63103e-05
0.000328542
0.00212517
0.00254702
0.00187647
0.0762197
4.9738e-14
2.83662e-13
1.39017e-12
3.59762e-12
2.01785e-11
8.38544e-11
2.14912e-10
1.23245e-09
5.12433e-09
1.08443e-08
6.46979e-08
6.9388e-07
6.38289e-06
3.67988e-05
0.000183774
0.00139588
0.00226328
0.00151551
0.0666255
9.99201e-15
3.09752e-14
1.27121e-13
8.33111e-13
5.63943e-12
2.07054e-11
6.27259e-11
2.87206e-10
1.38162e-09
7.50372e-09
8.40003e-08
5.18265e-07
2.15331e-06
1.85249e-05
9.77137e-05
0.000456855
0.0018822
0.00117068
0.0578478
3.77476e-15
1.16573e-14
2.31482e-14
1.29563e-13
8.17235e-13
4.38394e-12
2.73453e-11
1.43532e-10
7.94366e-10
1.63787e-08
4.16271e-07
2.16152e-06
4.01043e-06
8.43384e-06
5.8637e-05
0.000193184
0.00154537
0.000922012
0.0508125
4.94049e-15
7.82707e-15
7.66054e-15
3.2252e-14
1.94678e-13
1.09929e-12
7.55496e-12
1.13486e-10
1.90675e-09
3.70867e-08
1.64732e-06
9.20201e-06
4.21584e-05
1.70353e-05
3.29612e-05
8.71036e-05
0.00111688
0.000749558
0.0450661
4.21885e-15
6.77236e-15
5.27356e-15
7.93809e-15
2.88658e-14
2.74669e-13
4.22629e-12
1.37697e-10
4.05625e-09
8.12314e-08
2.90549e-06
1.82675e-05
7.38377e-05
0.000145947
7.3524e-05
9.03459e-05
0.000777221
0.000620072
0.039107
4.88498e-15
7.88258e-15
6.99441e-15
6.10623e-15
1.2268e-14
1.85185e-13
4.07357e-12
2.61441e-10
8.0933e-09
1.23141e-07
2.81189e-06
2.08035e-05
9.18157e-05
0.000461823
0.000199777
0.000124611
0.000593569
0.000544042
0.0345546
3.44169e-15
6.21725e-15
4.996e-15
5.44009e-15
5.05151e-15
6.02851e-14
4.29251e-12
2.88436e-10
8.23902e-09
2.35977e-07
2.07337e-06
1.21982e-05
7.23831e-05
0.000501787
0.000429594
0.000175015
0.000445656
0.000504115
0.0308363
4.44089e-15
6.05072e-15
6.4948e-15
5.38458e-15
2.27596e-15
5.36793e-14
2.642e-12
9.75617e-11
2.77178e-09
6.16604e-08
1.09425e-06
1.54118e-05
0.000117726
0.0006118
0.00069137
0.000421921
0.000446199
0.000506103
0.0269976
3.16414e-15
7.21645e-15
4.996e-15
5.44009e-15
5.32907e-15
1.04416e-13
4.96791e-12
1.68168e-10
4.76824e-09
7.02312e-08
1.37475e-06
2.81574e-05
0.000227153
0.000604232
0.000833242
0.000619048
0.000464833
0.000717573
0.0242398
2.83107e-15
7.77156e-15
2.22045e-15
3.83027e-15
1.82077e-14
5.38902e-13
1.62197e-11
3.6716e-10
1.51883e-08
1.44486e-07
2.80826e-06
5.99463e-05
0.000555271
0.00118849
0.000957265
0.00067421
0.000462478
0.00159293
0.0218074
1.44329e-15
6.32827e-15
1.77636e-15
5.82867e-15
3.59712e-14
1.61293e-12
4.80604e-11
6.85214e-10
2.83242e-08
2.27895e-07
3.898e-06
8.60985e-05
0.000717234
0.00140331
0.00112907
0.000725167
0.000443382
0.00260374
0.0198505
2.16493e-15
6.27276e-15
2.83107e-15
7.54952e-15
1.67089e-14
5.37292e-13
2.69506e-11
1.20655e-09
2.4156e-08
3.2264e-07
2.86237e-06
4.82724e-05
0.000424086
0.00140934
0.00153096
0.000840719
0.00064896
0.00743391
0.0180138
1.60982e-15
5.88418e-15
4.88498e-15
8.9373e-15
9.21485e-15
1.20792e-13
9.64573e-12
2.23301e-10
5.23711e-09
1.39889e-07
2.73439e-06
3.38766e-05
0.000257202
0.00122655
0.00194167
0.00116431
0.000834253
0.00812051
0.0161815
3.33067e-16
8.65974e-15
7.43849e-15
8.43769e-15
8.27116e-15
3.46168e-13
9.59982e-12
5.41873e-10
2.22746e-08
3.36629e-07
3.41043e-06
2.39227e-05
0.000182357
0.000912943
0.00204955
0.00196734
0.00123334
0.00746994
0.0142624
0
8.21565e-15
7.38298e-15
9.32587e-15
6.55032e-15
6.16174e-15
2.29206e-13
2.0676e-11
9.70462e-10
3.42428e-08
7.30082e-07
8.18393e-06
8.33791e-05
0.000493484
0.00187016
0.00270592
0.0022311
0.00697912
0.0126823
3.05311e-15
6.38378e-15
4.88498e-15
5.88418e-15
6.10623e-15
4.82947e-15
6.55032e-14
3.00854e-12
9.13092e-11
3.20007e-09
8.92418e-08
2.37018e-06
3.28497e-05
0.000232512
0.00120521
0.00273475
0.00349132
0.00683118
0.0116106
7.16094e-15
7.66054e-15
3.38618e-15
5.38458e-15
6.32827e-15
1.83187e-15
1.2601e-14
3.94518e-13
1.5838e-11
8.17669e-10
3.4027e-08
7.43734e-07
8.26432e-06
7.38814e-05
0.000499884
0.00212227
0.00367288
0.00657155
0.0105356
1.10467e-14
4.55191e-15
0
2.16493e-15
2.83107e-15
0
2.16493e-15
2.80886e-14
1.4449e-12
8.48163e-11
3.59479e-09
8.14209e-08
1.11623e-06
1.45115e-05
0.000125512
0.000767933
0.00323169
0.00613123
0.00989896
6.66134e-15
7.43849e-15
0
5.4956e-15
5.38458e-15
1.11022e-15
1.05471e-15
2.83107e-15
1.88183e-14
5.16531e-13
1.55988e-11
5.59991e-10
1.48438e-08
7.36227e-07
1.19189e-05
0.000104612
0.00122977
0.00337568
0.00793397
)
;

boundaryField
{
    leftWall
    {
        type            zeroGradient;
    }
    rightWall
    {
        type            zeroGradient;
    }
    lowerWall
    {
        type            zeroGradient;
    }
    atmosphere
    {
        type            inletOutlet;
        inletValue      uniform 0;
        value           nonuniform List<scalar> 
46
(
0
4.44089e-15
1.62093e-14
1.33227e-14
1.23235e-14
1.33782e-14
4.82947e-15
6.4948e-15
5.66214e-15
6.88338e-15
6.77236e-15
5.60663e-15
6.32827e-15
1.02696e-14
7.71605e-15
7.49401e-15
8.9373e-15
1.10467e-14
8.04912e-15
9.54792e-15
8.49321e-15
1.45439e-14
0
3.66374e-15
0
0
0
6.66134e-15
7.43849e-15
0
5.4956e-15
5.38458e-15
1.11022e-15
1.05471e-15
2.83107e-15
1.88183e-14
5.16531e-13
1.55988e-11
5.59991e-10
1.48438e-08
7.36227e-07
1.19189e-05
0.000104612
0.00122977
0.00337568
0.00793397
)
;
    }
    defaultFaces
    {
        type            empty;
    }
}


// ************************************************************************* //
