/*--------------------------------*- C++ -*----------------------------------*\
| =========                 |                                                 |
| \\      /  F ield         | foam-extend: Open Source CFD                    |
|  \\    /   O peration     | Version:     4.1                                |
|   \\  /    A nd           | Web:         http://www.foam-extend.org         |
|    \\/     M anipulation  |                                                 |
\*---------------------------------------------------------------------------*/
FoamFile
{
    version     2.0;
    format      ascii;
    class       volScalarField;
    location    "0.45";
    object      C;
}
// * * * * * * * * * * * * * * * * * * * * * * * * * * * * * * * * * * * * * //

dimensions      [0 0 0 0 0 0 0];

internalField   nonuniform List<scalar> 
2268
(
1
1
1
1
1
1
1
0.999997
0.999998
0.99995
0.999973
0.999981
0.999989
0.999994
0.999997
0.999999
0.999999
0.999995
0.999966
0.999491
0.998036
0.951334
0.0930544
1
1
1
1
0.999995
0.999991
0.999996
0.999959
0.999969
0.999702
0.99982
0.999818
0.999862
0.999919
0.999972
0.999989
0.999994
0.999913
0.999846
0.999541
0.998525
0.985505
0.964942
1
1
1
0.999997
0.999944
0.999903
0.99995
0.99972
0.999788
0.999083
0.997521
0.997799
0.998458
0.999362
0.999851
0.999961
0.999951
0.999754
0.99937
0.998151
0.980947
0.968221
0.950955
1
1
0.999999
0.99997
0.999577
0.999377
0.999606
0.998637
0.998936
0.996507
0.99111
0.986988
0.991234
0.996215
0.99832
0.999325
0.999621
0.999623
0.99957
0.999246
0.986837
0.956553
0.937749
1
0.999993
0.999993
0.999749
0.997833
0.997236
0.997735
0.99465
0.995108
0.988229
0.968646
0.968182
0.979201
0.982646
0.990211
0.995305
0.997371
0.998298
0.998536
0.998507
0.986398
0.943686
0.92508
0.999996
0.999915
0.999921
0.998417
0.991754
0.990806
0.987178
0.98367
0.975492
0.963668
0.943776
0.937595
0.942177
0.955258
0.965881
0.980302
0.985181
0.988897
0.993097
0.996605
0.986907
0.933861
0.909823
0.999954
0.999148
0.999309
0.992036
0.974411
0.972949
0.956315
0.948034
0.916527
0.897557
0.895102
0.835402
0.854699
0.927581
0.904891
0.933901
0.946156
0.955155
0.965092
0.989371
0.98478
0.917642
0.898429
0.999567
0.993688
0.995251
0.96656
0.931743
0.930596
0.888491
0.870411
0.821554
0.79941
0.814514
0.789467
0.805269
0.813121
0.824436
0.853456
0.827685
0.833535
0.880396
0.973248
0.982167
0.923729
0.877306
-0.966485
-0.927128
-0.867566
-0.776534
-0.666288
-0.575975
-0.51068
-0.453835
-0.38614
-0.381071
-0.379846
-0.316716
-0.269107
-0.225168
-0.225205
-0.259908
-0.470545
-0.716055
-0.703824
-0.974287
-0.974438
-0.973007
-0.952534
-0.914465
-0.859736
-0.783304
-0.568754
-0.442644
-0.423975
-0.439552
-0.342249
-0.244429
-0.0314288
-0.102939
-0.215032
-0.334346
-0.641184
-0.569003
-0.981314
-0.990751
-0.995212
-0.992949
-0.977086
-0.945835
-0.844977
-0.623951
-0.516063
-0.453263
-0.357986
-0.498227
-0.0961222
0.246434
0.201464
-0.0360824
-0.227191
-0.437301
-0.485945
-0.983905
-0.994075
-0.996727
-0.996706
-0.99456
-0.992159
-0.950295
-0.696809
-0.52458
-0.43957
-0.0190404
-0.273704
0.150233
0.331874
0.345932
0.229865
-0.10078
-0.286232
-0.423516
-0.985352
-0.993671
-0.994092
-0.994544
-0.993654
-0.988555
-0.904975
-0.639575
-0.345498
-0.252441
-0.0206282
0.0907419
0.306285
0.399864
0.403594
0.352015
0.0856419
-0.167737
-0.390832
-0.986835
-0.988001
-0.982752
-0.972997
-0.983565
-0.970831
-0.846517
-0.718094
-0.535412
-0.390123
-0.047845
0.168443
0.368306
0.422407
0.423596
0.392717
0.210212
-0.0614923
-0.350289
-0.989133
-0.973778
-0.936291
-0.881491
-0.95955
-0.976914
-0.946308
-0.836537
-0.104677
-0.259841
0.0796344
0.302533
0.409302
0.429532
0.428541
0.406041
0.280562
0.0178655
-0.316217
-0.99268
-0.858284
-0.757811
-0.629569
-0.827239
-0.837441
-0.81161
-0.635116
0.378941
0.261828
0.380321
0.443931
0.431608
0.427448
0.425876
0.40596
0.318746
0.100317
-0.272597
0.995403
0.946975
0.963775
0.833514
0.793323
0.791657
0.721034
0.655272
0.581644
0.574777
0.61465
0.650272
0.606299
0.560765
0.578489
0.52935
0.445421
0.403548
0.448191
0.661613
0.926048
0.922282
0.882072
0.961979
0.719347
0.804281
0.271496
0.397253
0.381113
0.19338
0.116253
0.0550282
0.0973418
0.251649
0.308589
0.281127
0.239946
0.174406
0.0917163
-0.00328571
-0.0370219
0.0222088
0.319056
0.785176
0.911276
0.887663
0.76158
0.276663
0.257212
-0.428963
-0.219034
-0.238487
-0.384163
-0.406445
-0.475322
-0.453023
-0.348771
-0.168312
0.0457697
0.16155
0.155994
0.0979567
-0.0466308
-0.171251
-0.168403
-0.020181
0.579152
0.848275
0.899485
0.397025
-0.277225
-0.408572
-0.771311
-0.636724
-0.65314
-0.684911
-0.718138
-0.762287
-0.804673
-0.784954
-0.701153
-0.460266
-0.00946847
0.0908991
0.0309956
-0.094662
-0.238559
-0.242559
-0.109895
0.324682
0.709411
0.857436
0.385061
-0.494972
-0.708063
-0.868247
-0.850062
-0.839558
-0.80799
-0.859008
-0.862993
-0.901621
-0.901718
-0.859344
-0.737792
-0.445211
-0.0853504
-0.0590495
-0.197107
-0.347101
-0.331416
-0.289018
-0.144636
0.167842
0.473319
0.0607009
-0.595202
-0.824295
-0.919999
-0.933796
-0.910439
-0.876004
-0.910649
-0.910239
-0.935377
-0.934607
-0.920229
-0.849175
-0.572613
-0.262008
-0.344571
-0.610144
-0.703219
-0.70038
-0.610233
-0.435859
-0.181724
0.0950548
-0.658844
-0.801441
-0.892088
-0.949001
-0.959339
-0.940963
-0.926637
-0.939733
-0.945112
-0.962008
-0.952841
-0.950837
-0.894541
-0.75788
-0.627552
-0.759581
-0.789995
-0.85708
-0.945479
-0.872229
-0.757209
-0.557177
-0.27543
-0.927356
-0.937183
-0.956953
-0.976491
-0.975954
-0.96662
-0.955765
-0.961317
-0.97441
-0.981856
-0.967331
-0.977815
-0.954079
-0.929379
-0.888279
-0.95173
-0.754263
-0.953751
-0.987606
-0.981292
-0.912573
-0.740219
-0.649687
-0.964855
-0.979099
-0.98797
-0.991558
-0.990854
-0.982921
-0.979653
-0.981512
-0.991363
-0.991233
-0.973829
-0.98982
-0.98152
-0.976218
-0.96042
-0.985549
-0.966251
-0.98858
-0.990091
-0.989798
-0.981437
-0.937679
-0.925324
-0.978244
-0.991184
-0.994311
-0.995908
-0.997299
-0.994129
-0.993102
-0.994821
-0.997562
-0.994065
-0.974872
-0.992679
-0.994032
-0.992223
-0.990201
-0.99698
-0.997063
-0.996029
-0.991815
-0.99282
-0.988647
-0.980325
-0.977403
-0.986775
-0.99604
-0.997409
-0.998227
-0.99934
-0.998546
-0.998506
-0.999286
-0.999066
-0.994369
-0.972958
-0.993284
-0.998649
-0.998219
-0.996963
-0.997658
-0.996367
-0.996027
-0.997529
-0.997148
-0.995828
-0.99377
-0.987708
-0.99242
-0.997843
-0.998863
-0.999433
-0.999728
-0.999792
-0.999829
-0.999911
-0.999195
-0.992893
-0.966903
-0.988031
-0.999256
-0.9994
-0.999141
-0.998882
-0.998567
-0.99825
-0.998354
-0.998238
-0.998627
-0.99805
-0.996464
-0.99627
-0.998936
-0.999495
-0.999892
-0.999933
-0.999979
-0.999985
-0.999974
-0.999164
-0.99148
-0.956911
-0.982789
-0.998846
-0.999824
-0.999886
-0.999688
-0.999128
-0.998845
-0.998932
-0.99928
-0.999801
-0.999916
-0.999925
-0.998403
-0.999588
-0.999795
-0.999984
-0.999997
-0.999998
-0.999998
-0.999992
-0.999344
-0.991448
-0.948262
-0.947085
-0.986067
-0.999499
-0.999954
-0.999909
-0.99962
-0.999445
-0.999394
-0.999609
-0.999911
-0.999989
-0.999996
-0.999584
-0.999959
-0.999932
-0.999998
-1
-1
-1
-0.999998
-0.99975
-0.993796
-0.946555
-0.893291
-0.964955
-0.998351
-0.999879
-0.999967
-0.999898
-0.999886
-0.999832
-0.99982
-0.999971
-0.999995
-0.999998
-0.999882
-0.999985
-0.999977
-1
-1
-1
-1
-0.999999
-0.999604
-0.993022
-0.957659
-0.846078
-0.958439
-0.996225
-0.999795
-0.999995
-0.999994
-0.999993
-0.999988
-0.999985
-0.999998
-0.999999
-0.999999
-0.999982
-0.999996
-0.999993
-1
-1
-1
-1
-1
-0.999962
-0.998943
-0.988679
-0.885312
-0.990012
-0.998673
-0.999969
-0.999999
-1
-1
-1
-1
-1
-1
-1
-0.999998
-0.999999
-0.999998
-1
-1
-1
-1
-1
-1
-0.999986
-0.999289
-0.993341
-0.999896
-1
-0.999999
-1
-1
-1
-1
-1
-1
-1
-1
-1
-1
-1
-1
-1
-1
-1
-1
-1
-1
-1
-0.999999
-1
-1
-1
-1
-1
-1
-1
-1
-1
-1
-1
-1
-1
-1
-1
-1
-1
-1
-1
-1
-1
-1
-1
-1
-1
-1
-1
-1
-1
-1
-1
-1
-1
-1
-1
-1
-1
-1
-1
-1
-1
-1
-1
-1
-1
-1
-1
-1
-1
-1
-1
-1
-1
-1
-1
-1
-1
-1
-1
-1
-1
-1
-1
-1
-1
-1
-1
-1
-1
-1
-1
-1
-1
-1
-1
-1
-1
-1
-1
-1
-1
-1
-1
-1
-1
-1
-1
-1
-1
-1
-1
-1
-1
-1
-1
-1
-1
-1
-1
-1
-1
-1
-1
-1
-1
-1
-1
-1
-1
-1
-1
-1
-1
-1
-1
-1
-1
-1
-1
-1
-1
-1
-1
-1
-1
-1
-1
-1
-1
-1
-1
-1
-1
-1
-1
-1
-1
-1
-1
-1
-1
-1
-1
-1
-1
-1
-1
-1
-1
-1
-1
-1
-1
-1
-1
-1
-1
-1
-1
-1
-1
-1
-1
-1
-1
-1
-1
-1
-1
-1
-1
-1
-1
-1
-1
-1
-1
-1
-1
-1
-1
-1
-1
-1
-1
-1
-1
-1
-1
-1
-1
-1
-1
-1
-1
-1
-1
-1
-1
-1
-1
-1
-1
-1
-1
-1
-1
-1
-1
-1
-1
-1
-1
-1
-1
-1
-1
-1
-1
-1
-1
-1
-1
-1
-1
-1
-1
-1
-1
-1
-1
-1
-1
-1
-1
-1
-1
-1
-1
-1
-1
-1
-1
-1
-1
-1
-1
-1
-1
-1
-1
-1
-1
-1
-1
-1
-1
-1
-1
-1
-1
-1
-1
-1
-1
-1
-1
-1
-1
-1
-1
-1
-1
-1
-1
-1
-1
-1
-1
-1
-1
-1
-1
-1
-1
-1
-1
-1
-1
-1
-1
-1
-1
-1
-1
-1
-1
-1
-1
-1
-1
-1
-1
-1
-1
-1
-1
-1
-1
-1
-1
-1
-1
-1
-1
-1
-1
-1
-1
-1
-1
-1
-1
-1
-1
-1
-1
-1
-1
-1
-1
-1
-1
-1
-1
-1
-1
-1
-1
-1
-1
-1
-1
-1
-1
-1
-1
-1
-1
-1
-1
-1
-1
-1
-1
-1
-1
-1
-1
-1
-1
-1
-1
-1
-1
-1
-1
-1
-1
-1
-1
-1
-1
-1
-1
-1
-1
-1
-1
-1
-1
-1
-1
-1
-1
-1
-1
-1
-1
-1
-1
-1
-1
-1
-1
-1
-1
-1
-1
-1
-1
-1
-1
-1
-1
-1
-1
-1
-1
-1
-1
-1
-1
-1
-1
-1
-1
-1
-1
-1
-1
-1
-1
-1
-1
-1
-1
-1
-1
-1
-1
-1
-1
-1
-1
-1
-1
-1
-1
-1
-1
-1
-1
-1
-1
-1
-1
-1
-1
-1
-1
-1
-1
-1
-1
-1
-1
-1
-1
-1
-1
-1
-1
-1
-1
-1
-1
-1
-1
-1
-1
-1
-1
-1
-1
-1
-1
-1
-1
-1
-1
-1
-1
-1
-1
-1
-1
-1
-1
-1
-1
-1
-1
-1
-1
-1
-1
-1
-1
-1
-1
-1
-1
-1
-1
-1
-1
-1
-1
-1
-1
-1
-1
-1
-1
-1
-1
-1
-1
-1
-1
-1
-1
-1
-1
-1
-1
-1
-1
-1
-1
-1
-1
-1
-1
-1
-1
-1
-1
-1
0.852649
0.832517
0.647631
-0.781915
0.862244
0.844704
0.776184
0.703315
0.899174
0.88862
0.88287
0.870951
0.885359
0.89391
0.89603
0.895549
0.692858
0.753354
0.772469
0.777554
0.309689
0.349041
0.344604
0.34649
-0.142518
-0.138611
-0.161446
-0.226204
-0.584383
-0.586404
-0.614161
-0.674506
-0.88349
-0.870194
-0.885436
-0.910131
-0.96667
-0.962943
-0.963365
-0.957699
-0.961383
-0.95949
-0.970057
-0.984317
-0.994392
-0.997503
-0.998388
-0.998488
-0.99987
-0.999959
-0.999972
-0.99996
-0.999996
-0.999994
-0.999995
-0.999994
-1
-0.999999
-0.999999
-0.999998
-1
-1
-1
-1
-1
-1
-1
-1
-1
-1
-1
-1
-1
-1
-1
-1
-1
-1
-1
-1
-1
-1
-1
-1
-1
-1
-1
-1
-1
-1
-1
-1
-1
-1
-1
-1
-1
-1
-1
-1
-1
-1
-1
-1
-1
-1
-1
-1
-1
-1
-1
-1
-1
-1
-1
-1
-1
-1
-1
-1
-1
-1
-1
-1
-1
-1
-1
-1
-1
-1
-1
-1
-1
-1
-1
-1
-1
-1
-1
-1
-1
-1
-1
-1
-1
-1
-1
-1
-1
-1
-1
-1
-1
-1
-1
-1
-1
-1
-1
-1
-1
-1
-1
-1
-1
-1
-1
-1
-0.764507
-0.67526
-0.499819
0.367446
-0.450034
-0.50259
-0.217464
0.00730231
0.436926
0.558579
0.553163
0.515694
0.42908
0.378706
0.381154
0.372274
0.302526
0.145106
-0.214153
0.722729
0.66175
0.478268
0.660471
0.562733
0.369659
0.451458
0.585542
0.68014
0.674783
0.630289
0.5193
0.235307
0.120881
0.172522
0.218352
0.174011
0.0867478
-0.19005
0.870799
0.870678
0.8646
0.869828
0.867279
0.861995
0.85413
0.83245
0.788682
0.663069
0.428877
-0.000729552
-0.245572
-0.295014
-0.271745
-0.155459
0.00805337
0.0298451
-0.144348
0.876222
0.809217
0.789111
0.805347
0.803257
0.799448
0.779427
0.718043
0.46524
0.262942
-0.0101792
-0.458039
-0.578999
-0.539845
-0.460823
-0.230035
-0.0642222
-0.00418366
-0.137847
0.65726
0.426305
0.537655
0.481942
0.458287
0.443552
0.431898
0.335888
-0.0957745
-0.517677
-0.730581
-0.773219
-0.768968
-0.696298
-0.659698
-0.366536
-0.264762
-0.058535
-0.149728
0.243064
-0.0387784
-0.161202
-0.352036
-0.349128
-0.193522
-0.0782873
-0.105139
-0.371134
-0.699258
-0.870839
-0.890528
-0.884806
-0.883583
-0.872886
-0.601868
-0.542592
-0.147293
-0.17107
-0.401814
-0.603377
-0.695065
-0.707705
-0.668669
-0.501519
-0.396161
-0.414044
-0.609996
-0.837676
-0.941464
-0.957784
-0.95699
-0.964651
-0.95738
-0.826065
-0.700377
-0.210073
-0.196344
-0.79947
-0.845844
-0.812341
-0.803341
-0.769358
-0.698029
-0.59577
-0.619639
-0.790929
-0.929813
-0.977908
-0.987687
-0.986198
-0.975229
-0.972105
-0.930444
-0.744903
-0.258237
-0.222783
-0.930794
-0.922436
-0.857533
-0.874594
-0.856944
-0.722046
-0.688686
-0.76655
-0.926009
-0.98506
-0.995412
-0.996653
-0.996026
-0.989969
-0.984026
-0.947317
-0.785288
-0.332496
-0.251013
-0.945226
-0.943151
-0.891235
-0.895993
-0.936615
-0.885668
-0.811952
-0.831443
-0.917497
-0.98578
-0.997982
-0.998631
-0.997988
-0.993448
-0.985453
-0.9547
-0.850126
-0.461786
-0.283122
-0.990094
-0.994486
-0.976929
-0.973788
-0.989931
-0.987453
-0.948133
-0.943141
-0.96607
-0.991897
-0.998631
-0.999306
-0.998918
-0.99583
-0.984998
-0.958544
-0.890104
-0.610707
-0.319182
-0.999392
-0.999725
-0.999585
-0.997438
-0.999052
-0.99733
-0.987701
-0.987559
-0.994482
-0.998348
-0.999576
-0.999605
-0.999508
-0.998715
-0.988379
-0.964771
-0.908202
-0.705397
-0.356663
-0.999979
-0.999974
-0.99996
-0.999885
-0.999832
-0.999552
-0.99852
-0.999357
-0.999493
-0.999623
-0.999503
-0.998679
-0.997771
-0.997419
-0.992573
-0.973734
-0.921411
-0.76562
-0.394088
-0.999994
-0.999993
-0.999993
-0.999992
-0.99997
-0.999957
-0.999911
-0.999907
-0.999795
-0.999608
-0.999202
-0.998024
-0.996093
-0.996457
-0.994083
-0.979724
-0.933202
-0.81309
-0.433053
-0.999998
-0.999998
-0.999998
-0.999997
-0.99999
-0.999984
-0.999964
-0.999906
-0.999723
-0.999491
-0.999015
-0.997726
-0.995442
-0.995934
-0.99466
-0.98392
-0.946862
-0.8676
-0.479455
-1
-0.999999
-0.999999
-0.999998
-0.999994
-0.999993
-0.999982
-0.999965
-0.999927
-0.999727
-0.99922
-0.99793
-0.994498
-0.995269
-0.994765
-0.987492
-0.96082
-0.920335
-0.531643
-1
-1
-0.999999
-0.999999
-0.999998
-0.999998
-0.999996
-0.999989
-0.999977
-0.999867
-0.999677
-0.99913
-0.995304
-0.99448
-0.994687
-0.990794
-0.972134
-0.946745
-0.583829
-1
-1
-1
-1
-1
-0.999999
-0.999999
-0.999995
-0.999988
-0.999965
-0.999925
-0.999852
-0.99849
-0.994642
-0.994729
-0.99269
-0.980497
-0.96612
-0.636805
-1
-1
-1
-1
-1
-1
-0.999999
-0.999996
-0.999994
-0.999985
-0.999967
-0.999954
-0.999301
-0.995888
-0.994782
-0.994087
-0.986829
-0.98383
-0.692582
-1
-1
-1
-1
-1
-1
-1
-0.999999
-0.999998
-0.999995
-0.999989
-0.999984
-0.999878
-0.998365
-0.995185
-0.994838
-0.99052
-0.992146
-0.745261
-1
-1
-1
-1
-1
-1
-1
-1
-0.999999
-0.999998
-0.999996
-0.999991
-0.999949
-0.999575
-0.996754
-0.995174
-0.992803
-0.994298
-0.790163
-1
-1
-1
-1
-1
-1
-1
-1
-1
-0.999999
-0.999998
-0.999996
-0.999985
-0.999908
-0.998612
-0.995351
-0.994169
-0.995428
-0.821847
-1
-1
-1
-1
-1
-1
-1
-1
-1
-1
-1
-0.999998
-0.999983
-0.999907
-0.999343
-0.99575
-0.994906
-0.996247
-0.847561
-1
-1
-1
-1
-1
-1
-1
-1
-1
-1
-1
-0.999999
-0.999987
-0.999926
-0.999632
-0.997208
-0.995473
-0.996969
-0.866749
-1
-1
-1
-1
-1
-1
-1
-1
-1
-1
-1
-0.999999
-0.999996
-0.999963
-0.999805
-0.999086
-0.996236
-0.997659
-0.884304
-1
-1
-1
-1
-1
-1
-1
-1
-1
-1
-0.999999
-0.999996
-0.999992
-0.999983
-0.999883
-0.999614
-0.996909
-0.998156
-0.898375
-1
-1
-1
-1
-1
-1
-1
-1
-1
-1
-0.999997
-0.999982
-0.999916
-0.999966
-0.999934
-0.999826
-0.997766
-0.998501
-0.909868
-1
-1
-1
-1
-1
-1
-1
-1
-1
-1
-0.999994
-0.999963
-0.999852
-0.999708
-0.999853
-0.999819
-0.998446
-0.99876
-0.921786
-1
-1
-1
-1
-1
-1
-1
-1
-1
-1
-0.999994
-0.999958
-0.999816
-0.999076
-0.9996
-0.999751
-0.998813
-0.998912
-0.930891
-1
-1
-1
-1
-1
-1
-1
-1
-1
-1
-0.999996
-0.999976
-0.999855
-0.998996
-0.999141
-0.99965
-0.999109
-0.998992
-0.938327
-1
-1
-1
-1
-1
-1
-1
-1
-1
-1
-0.999998
-0.999969
-0.999765
-0.998776
-0.998617
-0.999156
-0.999108
-0.998988
-0.946005
-1
-1
-1
-1
-1
-1
-1
-1
-1
-1
-0.999997
-0.999944
-0.999546
-0.998792
-0.998334
-0.998762
-0.99907
-0.998565
-0.95152
-1
-1
-1
-1
-1
-1
-1
-1
-1
-1
-0.999994
-0.99988
-0.998889
-0.997623
-0.998085
-0.998652
-0.999075
-0.996814
-0.956385
-1
-1
-1
-1
-1
-1
-1
-1
-1
-1
-0.999992
-0.999828
-0.998566
-0.997193
-0.997742
-0.99855
-0.999113
-0.994793
-0.960299
-1
-1
-1
-1
-1
-1
-1
-1
-1
-0.999999
-0.999994
-0.999903
-0.999152
-0.997181
-0.996938
-0.998319
-0.998702
-0.985132
-0.963972
-1
-1
-1
-1
-1
-1
-1
-1
-1
-1
-0.999995
-0.999932
-0.999486
-0.997547
-0.996117
-0.997671
-0.998331
-0.983759
-0.967637
-1
-1
-1
-1
-1
-1
-1
-1
-1
-0.999999
-0.999993
-0.999952
-0.999635
-0.998174
-0.995901
-0.996065
-0.997533
-0.98506
-0.971475
-1
-1
-1
-1
-1
-1
-1
-1
-1
-1
-0.999999
-0.999984
-0.999833
-0.999013
-0.99626
-0.994588
-0.995538
-0.986042
-0.974635
-1
-1
-1
-1
-1
-1
-1
-1
-1
-1
-1
-0.999995
-0.999934
-0.999535
-0.99759
-0.99453
-0.993017
-0.986338
-0.976779
-1
-1
-1
-1
-1
-1
-1
-1
-1
-1
-1
-0.999999
-0.999983
-0.999852
-0.999
-0.995755
-0.992654
-0.986857
-0.978929
-1
-1
-1
-1
-1
-1
-1
-1
-1
-1
-1
-1
-0.999998
-0.999971
-0.999749
-0.998464
-0.993537
-0.987738
-0.980202
-1
-1
-1
-1
-1
-1
-1
-1
-1
-1
-1
-1
-1
-0.999999
-0.999976
-0.999791
-0.99754
-0.993249
-0.984132
)
;

boundaryField
{
    leftWall
    {
        type            zeroGradient;
    }
    rightWall
    {
        type            zeroGradient;
    }
    lowerWall
    {
        type            zeroGradient;
    }
    atmosphere
    {
        type            zeroGradient;
    }
    defaultFaces
    {
        type            empty;
    }
}


// ************************************************************************* //
