/*--------------------------------*- C++ -*----------------------------------*\
| =========                 |                                                 |
| \\      /  F ield         | foam-extend: Open Source CFD                    |
|  \\    /   O peration     | Version:     4.1                                |
|   \\  /    A nd           | Web:         http://www.foam-extend.org         |
|    \\/     M anipulation  |                                                 |
\*---------------------------------------------------------------------------*/
FoamFile
{
    version     2.0;
    format      ascii;
    class       volScalarField;
    location    "0.45";
    object      C_0;
}
// * * * * * * * * * * * * * * * * * * * * * * * * * * * * * * * * * * * * * //

dimensions      [0 0 0 0 0 0 0];

internalField   nonuniform List<scalar> 
2268
(
1
1
1
1
1
1
1
0.999997
0.999998
0.999951
0.999973
0.999981
0.99999
0.999994
0.999997
0.999999
0.999999
0.999995
0.999965
0.999479
0.998002
0.951075
0.0927592
1
1
1
1
0.999995
0.999991
0.999996
0.99996
0.99997
0.999709
0.999823
0.999822
0.999866
0.999921
0.999972
0.999989
0.999994
0.99991
0.999841
0.999526
0.99848
0.985313
0.964486
1
1
1
0.999997
0.999945
0.999907
0.999952
0.999728
0.999793
0.999102
0.997553
0.997838
0.998491
0.999378
0.999854
0.999961
0.99995
0.999748
0.999352
0.998098
0.980373
0.967766
0.950457
1
1
0.999999
0.999971
0.999589
0.999398
0.999618
0.998677
0.998958
0.996572
0.991196
0.987171
0.99137
0.996287
0.99835
0.999336
0.999624
0.999622
0.999567
0.999227
0.986292
0.955589
0.937113
1
0.999994
0.999993
0.999755
0.99789
0.997318
0.997793
0.99479
0.995207
0.988444
0.968868
0.96846
0.979459
0.982902
0.990353
0.995351
0.997397
0.998308
0.998536
0.998489
0.985804
0.942321
0.924259
0.999996
0.999919
0.999924
0.998457
0.99197
0.991048
0.987477
0.984033
0.976022
0.96439
0.944277
0.938038
0.942598
0.955726
0.966172
0.980348
0.985196
0.988954
0.99323
0.996605
0.986386
0.931972
0.908773
0.999956
0.999183
0.999333
0.992245
0.975081
0.973616
0.95718
0.949003
0.918294
0.899619
0.896288
0.83521
0.855135
0.928352
0.904927
0.933896
0.94606
0.955239
0.965687
0.989705
0.984462
0.91521
0.897076
0.999586
0.993894
0.995409
0.967468
0.933519
0.932231
0.890421
0.872445
0.824778
0.803161
0.816467
0.789138
0.805121
0.812972
0.824355
0.852507
0.826856
0.833361
0.88231
0.974301
0.982192
0.921362
0.875615
-0.967531
-0.930123
-0.872676
-0.784025
-0.67383
-0.581575
-0.514606
-0.45652
-0.386578
-0.38113
-0.380934
-0.320004
-0.274342
-0.227507
-0.22641
-0.259176
-0.467994
-0.71626
-0.705291
-0.974934
-0.975256
-0.973959
-0.954068
-0.917091
-0.862783
-0.787005
-0.572727
-0.444458
-0.425063
-0.442366
-0.348444
-0.255472
-0.0421359
-0.111484
-0.217147
-0.333597
-0.640016
-0.570948
-0.981614
-0.991011
-0.995367
-0.993133
-0.977574
-0.946556
-0.848438
-0.628585
-0.519902
-0.456742
-0.361867
-0.501619
-0.106915
0.240554
0.192619
-0.0453787
-0.228245
-0.43526
-0.487541
-0.98404
-0.994237
-0.99677
-0.996685
-0.994589
-0.992139
-0.950112
-0.69791
-0.526065
-0.440842
-0.0191539
-0.277848
0.145379
0.329479
0.342456
0.221651
-0.105305
-0.28603
-0.4247
-0.985434
-0.993774
-0.994112
-0.994426
-0.993612
-0.988783
-0.90629
-0.639949
-0.341315
-0.248936
-0.0162344
0.0918045
0.306316
0.399382
0.40227
0.348099
0.0792679
-0.169272
-0.392233
-0.986908
-0.987991
-0.982606
-0.971189
-0.983223
-0.970799
-0.845469
-0.715292
-0.532312
-0.384049
-0.0401846
0.172413
0.369469
0.422692
0.423208
0.390448
0.204418
-0.0649343
-0.352124
-0.989212
-0.973707
-0.934741
-0.872146
-0.95847
-0.977059
-0.945615
-0.851238
-0.126542
-0.258749
0.0860114
0.304272
0.409723
0.429992
0.42852
0.404523
0.275873
0.0137574
-0.318303
-0.99272
-0.858187
-0.754804
-0.597783
-0.820234
-0.839237
-0.810373
-0.635235
0.374957
0.262002
0.379534
0.442092
0.431298
0.428114
0.426313
0.404686
0.314654
0.0958441
-0.274834
0.995589
0.948233
0.964896
0.837715
0.798398
0.796347
0.725735
0.660007
0.588395
0.58082
0.619155
0.650448
0.603202
0.558673
0.577029
0.527106
0.441872
0.402448
0.450378
0.66946
0.929077
0.921967
0.879999
0.963341
0.723637
0.809863
0.284804
0.409784
0.392562
0.205118
0.127747
0.0676994
0.107545
0.256458
0.3085
0.279785
0.23647
0.170562
0.0880422
-0.0064152
-0.0381698
0.0244519
0.329558
0.791729
0.91183
0.886967
0.767555
0.285774
0.276024
-0.420454
-0.206893
-0.227606
-0.373874
-0.396616
-0.466483
-0.444122
-0.339684
-0.160096
0.0533355
0.163518
0.155588
0.094119
-0.052648
-0.173896
-0.169065
-0.0140415
0.588589
0.851224
0.900784
0.401809
-0.270459
-0.395408
-0.76622
-0.63103
-0.648206
-0.67966
-0.713425
-0.75865
-0.801367
-0.781241
-0.696716
-0.449049
0.00168233
0.0913817
0.028419
-0.0993472
-0.240852
-0.243348
-0.105626
0.335245
0.715354
0.859621
0.389824
-0.490274
-0.702542
-0.86568
-0.848178
-0.837603
-0.805182
-0.85741
-0.861214
-0.900367
-0.900334
-0.856512
-0.729095
-0.425844
-0.076009
-0.0598193
-0.205663
-0.349073
-0.331625
-0.287224
-0.139702
0.177828
0.482133
0.0568713
-0.591331
-0.821437
-0.918698
-0.933169
-0.909683
-0.874388
-0.909955
-0.909019
-0.934299
-0.933607
-0.918721
-0.844668
-0.561063
-0.261061
-0.353912
-0.617332
-0.702498
-0.697708
-0.60299
-0.427131
-0.172183
0.104395
-0.659705
-0.799345
-0.890432
-0.948245
-0.959094
-0.940619
-0.925741
-0.939222
-0.944111
-0.960859
-0.951632
-0.94977
-0.891833
-0.755309
-0.633442
-0.768937
-0.790667
-0.856313
-0.943708
-0.869165
-0.752372
-0.548466
-0.269277
-0.926152
-0.935916
-0.956085
-0.976149
-0.975905
-0.966343
-0.955192
-0.960822
-0.973613
-0.981157
-0.966554
-0.977336
-0.953317
-0.928951
-0.890912
-0.953459
-0.754052
-0.954488
-0.987582
-0.98103
-0.910356
-0.738245
-0.651771
-0.964268
-0.978646
-0.987749
-0.99147
-0.990856
-0.982662
-0.979288
-0.981125
-0.99099
-0.990993
-0.973617
-0.989657
-0.981228
-0.976076
-0.961546
-0.986081
-0.966767
-0.988752
-0.990052
-0.989728
-0.981206
-0.937064
-0.925869
-0.977895
-0.991063
-0.994214
-0.995867
-0.997299
-0.994012
-0.992937
-0.994649
-0.997466
-0.994044
-0.97479
-0.992637
-0.993889
-0.992173
-0.990538
-0.99709
-0.997066
-0.996026
-0.991693
-0.992739
-0.988539
-0.980122
-0.977524
-0.986533
-0.995985
-0.997359
-0.998198
-0.999335
-0.998518
-0.998465
-0.999259
-0.999065
-0.994417
-0.973101
-0.993349
-0.998634
-0.998238
-0.997063
-0.997666
-0.996358
-0.996011
-0.997511
-0.997129
-0.995794
-0.993738
-0.987737
-0.992248
-0.997811
-0.998839
-0.999419
-0.999724
-0.999788
-0.999825
-0.999909
-0.999207
-0.993039
-0.967254
-0.988171
-0.999255
-0.999403
-0.999164
-0.99889
-0.998562
-0.998244
-0.998345
-0.998223
-0.99861
-0.998033
-0.99644
-0.996173
-0.998912
-0.999484
-0.999889
-0.999932
-0.999978
-0.999985
-0.999973
-0.999169
-0.991495
-0.957437
-0.98297
-0.998899
-0.999824
-0.999888
-0.999689
-0.999124
-0.998842
-0.998926
-0.999273
-0.999798
-0.999915
-0.999924
-0.998358
-0.999576
-0.99979
-0.999983
-0.999997
-0.999997
-0.999998
-0.999992
-0.999329
-0.991337
-0.948382
-0.947915
-0.986544
-0.999533
-0.999955
-0.999909
-0.999619
-0.999443
-0.99939
-0.999606
-0.99991
-0.999989
-0.999995
-0.99957
-0.999958
-0.99993
-0.999998
-1
-1
-1
-0.999998
-0.999739
-0.993658
-0.946287
-0.894304
-0.96509
-0.99838
-0.999883
-0.999967
-0.999898
-0.999886
-0.999831
-0.999819
-0.99997
-0.999995
-0.999998
-0.999878
-0.999984
-0.999976
-1
-1
-1
-1
-0.999999
-0.999593
-0.992828
-0.956653
-0.845835
-0.957948
-0.996212
-0.999794
-0.999995
-0.999994
-0.999993
-0.999988
-0.999985
-0.999998
-0.999999
-0.999999
-0.999981
-0.999996
-0.999993
-1
-1
-1
-1
-1
-0.99996
-0.998872
-0.988098
-0.882786
-0.98936
-0.998614
-0.999969
-0.999999
-1
-1
-1
-1
-1
-1
-1
-0.999998
-0.999999
-0.999998
-1
-1
-1
-1
-1
-1
-0.999985
-0.999264
-0.993124
-0.999891
-1
-0.999999
-1
-1
-1
-1
-1
-1
-1
-1
-1
-1
-1
-1
-1
-1
-1
-1
-1
-1
-1
-0.999999
-1
-1
-1
-1
-1
-1
-1
-1
-1
-1
-1
-1
-1
-1
-1
-1
-1
-1
-1
-1
-1
-1
-1
-1
-1
-1
-1
-1
-1
-1
-1
-1
-1
-1
-1
-1
-1
-1
-1
-1
-1
-1
-1
-1
-1
-1
-1
-1
-1
-1
-1
-1
-1
-1
-1
-1
-1
-1
-1
-1
-1
-1
-1
-1
-1
-1
-1
-1
-1
-1
-1
-1
-1
-1
-1
-1
-1
-1
-1
-1
-1
-1
-1
-1
-1
-1
-1
-1
-1
-1
-1
-1
-1
-1
-1
-1
-1
-1
-1
-1
-1
-1
-1
-1
-1
-1
-1
-1
-1
-1
-1
-1
-1
-1
-1
-1
-1
-1
-1
-1
-1
-1
-1
-1
-1
-1
-1
-1
-1
-1
-1
-1
-1
-1
-1
-1
-1
-1
-1
-1
-1
-1
-1
-1
-1
-1
-1
-1
-1
-1
-1
-1
-1
-1
-1
-1
-1
-1
-1
-1
-1
-1
-1
-1
-1
-1
-1
-1
-1
-1
-1
-1
-1
-1
-1
-1
-1
-1
-1
-1
-1
-1
-1
-1
-1
-1
-1
-1
-1
-1
-1
-1
-1
-1
-1
-1
-1
-1
-1
-1
-1
-1
-1
-1
-1
-1
-1
-1
-1
-1
-1
-1
-1
-1
-1
-1
-1
-1
-1
-1
-1
-1
-1
-1
-1
-1
-1
-1
-1
-1
-1
-1
-1
-1
-1
-1
-1
-1
-1
-1
-1
-1
-1
-1
-1
-1
-1
-1
-1
-1
-1
-1
-1
-1
-1
-1
-1
-1
-1
-1
-1
-1
-1
-1
-1
-1
-1
-1
-1
-1
-1
-1
-1
-1
-1
-1
-1
-1
-1
-1
-1
-1
-1
-1
-1
-1
-1
-1
-1
-1
-1
-1
-1
-1
-1
-1
-1
-1
-1
-1
-1
-1
-1
-1
-1
-1
-1
-1
-1
-1
-1
-1
-1
-1
-1
-1
-1
-1
-1
-1
-1
-1
-1
-1
-1
-1
-1
-1
-1
-1
-1
-1
-1
-1
-1
-1
-1
-1
-1
-1
-1
-1
-1
-1
-1
-1
-1
-1
-1
-1
-1
-1
-1
-1
-1
-1
-1
-1
-1
-1
-1
-1
-1
-1
-1
-1
-1
-1
-1
-1
-1
-1
-1
-1
-1
-1
-1
-1
-1
-1
-1
-1
-1
-1
-1
-1
-1
-1
-1
-1
-1
-1
-1
-1
-1
-1
-1
-1
-1
-1
-1
-1
-1
-1
-1
-1
-1
-1
-1
-1
-1
-1
-1
-1
-1
-1
-1
-1
-1
-1
-1
-1
-1
-1
-1
-1
-1
-1
-1
-1
-1
-1
-1
-1
-1
-1
-1
-1
-1
-1
-1
-1
-1
-1
-1
-1
-1
-1
-1
-1
-1
-1
-1
-1
-1
-1
-1
-1
-1
-1
-1
-1
-1
-1
-1
-1
-1
-1
-1
-1
-1
-1
-1
-1
-1
-1
-1
-1
-1
-1
-1
-1
-1
-1
-1
-1
-1
-1
-1
-1
-1
-1
-1
-1
-1
-1
-1
-1
-1
-1
-1
-1
-1
-1
-1
-1
-1
-1
-1
-1
-1
-1
-1
-1
-1
-1
-1
-1
-1
-1
-1
-1
-1
-1
-1
-1
-1
-1
-1
-1
-1
-1
-1
-1
-1
-1
-1
-1
-1
-1
0.850808
0.830855
0.645609
-0.781938
0.861141
0.843593
0.775569
0.702314
0.899869
0.888721
0.883066
0.871285
0.886633
0.894559
0.896239
0.89567
0.696977
0.753942
0.770769
0.774486
0.312142
0.345249
0.339325
0.339322
-0.146838
-0.146603
-0.172092
-0.240156
-0.591909
-0.595815
-0.62429
-0.685769
-0.88628
-0.875209
-0.890342
-0.913953
-0.967438
-0.964028
-0.964207
-0.95791
-0.96134
-0.95947
-0.970298
-0.984667
-0.994331
-0.997514
-0.998454
-0.998577
-0.999867
-0.999958
-0.999973
-0.999963
-0.999996
-0.999994
-0.999995
-0.999994
-1
-0.999999
-0.999999
-0.999998
-1
-1
-1
-1
-1
-1
-1
-1
-1
-1
-1
-1
-1
-1
-1
-1
-1
-1
-1
-1
-1
-1
-1
-1
-1
-1
-1
-1
-1
-1
-1
-1
-1
-1
-1
-1
-1
-1
-1
-1
-1
-1
-1
-1
-1
-1
-1
-1
-1
-1
-1
-1
-1
-1
-1
-1
-1
-1
-1
-1
-1
-1
-1
-1
-1
-1
-1
-1
-1
-1
-1
-1
-1
-1
-1
-1
-1
-1
-1
-1
-1
-1
-1
-1
-1
-1
-1
-1
-1
-1
-1
-1
-1
-1
-1
-1
-1
-1
-1
-1
-1
-1
-1
-1
-1
-1
-1
-1
-0.766923
-0.676618
-0.507547
0.386608
-0.457579
-0.502618
-0.201552
0.0247885
0.446703
0.558441
0.55086
0.51252
0.427252
0.380712
0.382806
0.37155
0.29821
0.139171
-0.217814
0.723328
0.660058
0.47662
0.659133
0.560827
0.370658
0.457329
0.59337
0.681781
0.674413
0.627202
0.513594
0.230681
0.125166
0.177343
0.217232
0.167956
0.0818861
-0.192066
0.871176
0.870863
0.86475
0.869815
0.867318
0.861894
0.853728
0.831182
0.785542
0.656223
0.416617
-0.0141649
-0.249492
-0.29232
-0.268342
-0.14815
0.0103454
0.0279016
-0.145943
0.874152
0.806228
0.78898
0.805679
0.804681
0.800715
0.77951
0.715651
0.45867
0.252789
-0.031554
-0.469057
-0.576066
-0.53586
-0.455283
-0.222436
-0.0631877
-0.00604437
-0.140458
0.643996
0.419677
0.535969
0.484833
0.466267
0.451794
0.436255
0.334097
-0.106078
-0.525577
-0.73619
-0.772452
-0.765862
-0.69195
-0.658203
-0.364429
-0.268328
-0.0621794
-0.152718
0.225335
-0.0572859
-0.173571
-0.352612
-0.341594
-0.17999
-0.0720317
-0.102729
-0.377832
-0.705446
-0.873611
-0.89018
-0.883319
-0.883006
-0.872703
-0.603726
-0.547439
-0.151962
-0.174514
-0.419228
-0.614985
-0.698876
-0.706842
-0.663671
-0.492409
-0.391645
-0.412926
-0.615517
-0.841769
-0.943118
-0.957915
-0.956587
-0.964663
-0.957426
-0.826208
-0.702606
-0.213309
-0.200016
-0.806733
-0.847492
-0.811312
-0.801149
-0.766444
-0.693924
-0.593185
-0.62003
-0.795198
-0.931768
-0.978671
-0.9878
-0.986006
-0.974993
-0.972014
-0.930463
-0.748512
-0.264301
-0.226664
-0.931839
-0.922585
-0.855762
-0.874192
-0.855343
-0.718274
-0.687716
-0.769649
-0.928817
-0.985605
-0.995572
-0.996672
-0.99598
-0.989876
-0.983954
-0.947741
-0.792767
-0.342651
-0.255322
-0.945269
-0.943155
-0.889847
-0.895541
-0.93597
-0.880948
-0.810399
-0.832945
-0.921263
-0.986751
-0.99811
-0.998639
-0.997966
-0.993382
-0.98536
-0.954962
-0.856346
-0.476137
-0.288017
-0.990669
-0.994525
-0.976279
-0.973491
-0.989944
-0.986922
-0.947039
-0.943768
-0.967703
-0.992472
-0.998724
-0.999314
-0.998906
-0.995774
-0.984983
-0.958818
-0.892246
-0.620654
-0.324458
-0.999455
-0.999726
-0.999574
-0.997387
-0.999043
-0.997206
-0.987434
-0.987777
-0.994776
-0.998456
-0.999596
-0.999607
-0.999503
-0.998697
-0.988423
-0.965174
-0.909135
-0.710922
-0.362049
-0.99998
-0.999974
-0.99996
-0.999882
-0.99983
-0.999544
-0.998484
-0.999366
-0.999519
-0.999637
-0.999501
-0.998659
-0.997747
-0.997403
-0.992585
-0.974125
-0.922107
-0.769526
-0.399503
-0.999994
-0.999993
-0.999993
-0.999992
-0.999969
-0.999957
-0.99991
-0.999908
-0.999797
-0.999609
-0.999198
-0.998013
-0.99608
-0.996448
-0.99409
-0.98003
-0.934186
-0.817711
-0.439303
-0.999998
-0.999998
-0.999998
-0.999997
-0.99999
-0.999984
-0.999964
-0.999907
-0.999724
-0.999491
-0.999015
-0.997718
-0.995431
-0.995924
-0.994678
-0.984281
-0.948301
-0.874339
-0.486833
-1
-0.999999
-0.999999
-0.999998
-0.999994
-0.999992
-0.999982
-0.999965
-0.999927
-0.999728
-0.999221
-0.99792
-0.994494
-0.995251
-0.994786
-0.98788
-0.962045
-0.924355
-0.539293
-1
-1
-0.999999
-0.999999
-0.999998
-0.999998
-0.999996
-0.999989
-0.999977
-0.999867
-0.999678
-0.999131
-0.995303
-0.994471
-0.994708
-0.99108
-0.973076
-0.948875
-0.591184
-1
-1
-1
-1
-1
-0.999999
-0.999999
-0.999995
-0.999988
-0.999965
-0.999925
-0.999855
-0.998519
-0.994646
-0.994735
-0.992894
-0.981225
-0.968437
-0.644235
-1
-1
-1
-1
-1
-1
-0.999999
-0.999996
-0.999994
-0.999985
-0.999967
-0.999956
-0.999329
-0.995932
-0.994789
-0.994208
-0.987226
-0.985439
-0.699892
-1
-1
-1
-1
-1
-1
-1
-0.999999
-0.999998
-0.999995
-0.99999
-0.999985
-0.999885
-0.998417
-0.995223
-0.9949
-0.990749
-0.992347
-0.75155
-1
-1
-1
-1
-1
-1
-1
-1
-0.999999
-0.999998
-0.999996
-0.999991
-0.999951
-0.999598
-0.996857
-0.995195
-0.992955
-0.994324
-0.794422
-1
-1
-1
-1
-1
-1
-1
-1
-1
-0.999999
-0.999998
-0.999996
-0.999985
-0.999912
-0.998677
-0.995369
-0.99426
-0.995443
-0.824927
-1
-1
-1
-1
-1
-1
-1
-1
-1
-1
-1
-0.999998
-0.999983
-0.999908
-0.999378
-0.995793
-0.994961
-0.996263
-0.850061
-1
-1
-1
-1
-1
-1
-1
-1
-1
-1
-1
-0.999999
-0.999987
-0.999927
-0.999656
-0.997318
-0.995526
-0.996986
-0.868835
-1
-1
-1
-1
-1
-1
-1
-1
-1
-1
-1
-0.999999
-0.999996
-0.999963
-0.999809
-0.999131
-0.996292
-0.997675
-0.886157
-1
-1
-1
-1
-1
-1
-1
-1
-1
-1
-0.999999
-0.999996
-0.999992
-0.999983
-0.999883
-0.999621
-0.99696
-0.998171
-0.899886
-1
-1
-1
-1
-1
-1
-1
-1
-1
-1
-0.999997
-0.999981
-0.999915
-0.999966
-0.999934
-0.999827
-0.997813
-0.998514
-0.911297
-1
-1
-1
-1
-1
-1
-1
-1
-1
-1
-0.999994
-0.999962
-0.999849
-0.999704
-0.999849
-0.999817
-0.99847
-0.998768
-0.923098
-1
-1
-1
-1
-1
-1
-1
-1
-1
-1
-0.999994
-0.999957
-0.99981
-0.999063
-0.999595
-0.999746
-0.998838
-0.998916
-0.931945
-1
-1
-1
-1
-1
-1
-1
-1
-1
-1
-0.999996
-0.999975
-0.999848
-0.998967
-0.999125
-0.999646
-0.999108
-0.998991
-0.9393
-1
-1
-1
-1
-1
-1
-1
-1
-1
-1
-0.999998
-0.999969
-0.99976
-0.998748
-0.998593
-0.999129
-0.999107
-0.998986
-0.947011
-1
-1
-1
-1
-1
-1
-1
-1
-1
-1
-0.999997
-0.999944
-0.999544
-0.99876
-0.998306
-0.998742
-0.999065
-0.998616
-0.952457
-1
-1
-1
-1
-1
-1
-1
-1
-1
-1
-0.999994
-0.999882
-0.998904
-0.997617
-0.998054
-0.998635
-0.999074
-0.996941
-0.957155
-1
-1
-1
-1
-1
-1
-1
-1
-1
-1
-0.999992
-0.999831
-0.998593
-0.997181
-0.99769
-0.998528
-0.999113
-0.99478
-0.960941
-1
-1
-1
-1
-1
-1
-1
-1
-1
-0.999999
-0.999994
-0.999906
-0.999176
-0.997187
-0.996861
-0.998277
-0.998694
-0.985105
-0.964531
-1
-1
-1
-1
-1
-1
-1
-1
-1
-1
-0.999995
-0.999934
-0.999501
-0.997581
-0.996082
-0.99757
-0.99828
-0.983834
-0.968141
-1
-1
-1
-1
-1
-1
-1
-1
-1
-0.999999
-0.999994
-0.999954
-0.99965
-0.998233
-0.995895
-0.995885
-0.997403
-0.985055
-0.971923
-1
-1
-1
-1
-1
-1
-1
-1
-1
-1
-0.999999
-0.999985
-0.999842
-0.999058
-0.996323
-0.994523
-0.995259
-0.986023
-0.974984
-1
-1
-1
-1
-1
-1
-1
-1
-1
-1
-1
-0.999996
-0.999939
-0.999562
-0.997702
-0.99454
-0.992846
-0.986322
-0.977062
-1
-1
-1
-1
-1
-1
-1
-1
-1
-1
-1
-0.999999
-0.999985
-0.999863
-0.999061
-0.995894
-0.992602
-0.986852
-0.979135
-1
-1
-1
-1
-1
-1
-1
-1
-1
-1
-1
-1
-0.999998
-0.999973
-0.999766
-0.998561
-0.993611
-0.98779
-0.980385
-1
-1
-1
-1
-1
-1
-1
-1
-1
-1
-1
-1
-1
-0.999999
-0.999978
-0.999802
-0.99771
-0.993414
-0.984298
)
;

boundaryField
{
    leftWall
    {
        type            zeroGradient;
    }
    rightWall
    {
        type            zeroGradient;
    }
    lowerWall
    {
        type            zeroGradient;
    }
    atmosphere
    {
        type            zeroGradient;
    }
    defaultFaces
    {
        type            empty;
    }
}


// ************************************************************************* //
