/*--------------------------------*- C++ -*----------------------------------*\
| =========                 |                                                 |
| \\      /  F ield         | foam-extend: Open Source CFD                    |
|  \\    /   O peration     | Version:     4.1                                |
|   \\  /    A nd           | Web:         http://www.foam-extend.org         |
|    \\/     M anipulation  |                                                 |
\*---------------------------------------------------------------------------*/
FoamFile
{
    version     2.0;
    format      ascii;
    class       volScalarField;
    location    "0.45";
    object      p;
}
// * * * * * * * * * * * * * * * * * * * * * * * * * * * * * * * * * * * * * //

dimensions      [1 -1 -2 0 0 0 0];

internalField   nonuniform List<scalar> 
2268
(
1011.84
1010.71
1000.49
996.301
962.784
973.151
899.61
956.819
847.58
810.7
1036.84
958.252
962.623
972.037
1055.69
926.649
969.896
1052.15
1218.11
1236.56
1367.28
1402.64
1949.45
953.989
952.184
942.091
937.471
902.878
909.643
841.596
898.44
788.037
716.369
949.799
902.177
897.784
876.495
925.136
954.631
885.331
967.946
1194.16
1186.37
1305.95
1320.23
1381.04
893.706
892.637
883.158
878.095
840.475
851.44
781.062
824.255
710.389
735.758
752.19
884.37
806.834
893.638
844.314
851.733
841.871
927.081
1036.78
1147.73
1211.63
1289.26
1327.34
840.176
835.005
826.249
819.734
778.209
780.599
729.119
778.415
650.565
694.744
695.534
771.429
812.3
657.501
766.044
772.184
847.454
894.325
1062.02
1046.48
1170.98
1224.02
1246.51
773.915
773.514
767.22
760.02
712.792
709.863
649.117
712.942
545.863
665.171
603.577
744.904
567.924
751.347
642.279
750.192
806.592
844.926
935.146
942.272
1069.5
1125.25
1184.3
731.51
718.027
712.052
703.006
647.271
653.096
571.025
709.294
475.408
637.375
577.898
650.741
611.678
706.791
482.691
622.008
821.548
785.888
912.512
873.204
1013.84
1046.86
1098.55
663.714
652.515
653.477
644.852
582.392
582.598
559.105
618.471
410.153
642.542
564.055
612.905
678.417
579.981
547.255
532.98
786.832
726.661
846.273
726.626
915.164
917.499
1021.82
614.821
606.747
598.642
597.671
548.156
552.431
500.134
662.897
564.654
715.768
667.77
738.762
547.025
745.025
674.321
542.398
852.728
823.018
935.199
565.629
837.356
820.428
809.488
491.783
506.847
578.238
744.354
1003.62
1243.82
1460.61
1560.8
1683.35
1899.48
1589.13
1929.9
2167.01
2562.64
2858.92
2899.1
2520.21
1838.04
1907.16
481.778
472.483
470.661
480.144
514.535
589.503
739.571
1264.57
1534.09
1694.23
1532.47
1734.89
2143.89
2710.8
2963.44
2958.03
2837.92
2027.17
2259
471.629
466.369
465.403
463.778
468.124
483.199
618.44
1112.1
1341.15
1519.9
1746.61
1365.5
2279.46
2389.52
2811.2
3097.46
3037.03
2570.16
2479.87
471.98
466.714
465.237
463.207
463.725
462.973
479.181
910.689
1328.51
1492.37
2087.65
1856.15
2186.67
2227.16
2478.19
2890.88
3165.64
2899.61
2638.32
472.191
467.001
465.838
462.538
463.086
463.617
522.067
1059.26
1762.77
1897.04
2073.99
2057.43
1904.05
2008.05
2274.36
2539.13
3124.04
3066.4
2710.4
472.49
468.582
468.134
465.736
464.885
466.88
604.611
838.143
1242.2
1572.84
2023.88
1950.99
1737.38
1907.48
2148.86
2418.36
2924.5
3132.66
2792.16
472.003
471.692
495.849
543.073
472.922
462.703
479.408
593.433
1975.46
1814.9
1995.6
1712.58
1610.07
1826.98
2049.67
2306.11
2706.3
3113.38
2849.69
472.836
589.322
779.908
1055.4
631.625
608.312
664.414
1018.68
1464.65
1754.87
1506.85
1360.86
1522.31
1758.64
1978.93
2235.31
2556.52
3030.84
2904.03
508.235
507.898
520.88
629.762
584.084
603.967
760.188
903.074
1016.88
1072.09
933.065
882.996
1050.58
1253.31
972.182
1101.54
1714.81
1624.7
1568.54
968.27
649.995
543.254
415.07
382.633
787.044
609.125
1579.44
1416.06
1412.56
1744.67
1796.43
1806.69
1766.25
1616.44
1489.52
1743.27
1746.89
1872.95
1948.71
2040.22
2002.34
2033.83
1681.98
673.208
226.553
-11.0783
575.857
1612.4
1649.93
1250.51
1636.22
1609.15
1345.76
1269.82
1102.34
1120.4
1322.35
1712.03
1813.34
1764.96
1803.11
1872.35
1985.83
1864.44
1861.63
1988.4
995.843
365.291
-198.71
1301.55
1535.19
1204.56
401.497
666.649
655.768
577.73
467.989
369.828
260
313.328
506.03
1206.07
1757.31
1809.46
1741.23
1894.64
1655.79
1680.4
1788.66
1420.64
575.161
137.71
1151.49
1018.33
457.01
120.69
154.441
173.098
234.341
143.044
144.305
88.9689
96.1255
164.056
381.74
1152.7
1742.52
1816.07
1728.57
1400.09
1438.02
1481.26
1716.09
1702.25
1154.13
1477.18
710.952
191.088
49.9012
44.4827
64.0112
114.253
67.4281
71.3624
43.7999
54.014
68.3197
160.879
798.342
1501.24
1345.81
745.725
483.925
441.2
722.931
1184.54
1668.2
1763.13
569.503
219.321
74.1377
18.3895
15.5274
28.8064
42.4641
30.2362
27.9873
15.0296
22.0998
15.245
79.9973
313.418
654.02
333.716
266.028
131.223
23.2991
99.6927
322.708
824.477
1477.26
55.8478
30.0902
15.3814
6.55353
6.81302
11.3381
17.1167
9.50695
5.45909
3.24909
6.23137
0.849334
10.4339
29.8478
75.1985
17.3323
327.672
16.7649
1.76043
3.04522
47.9035
345.784
553.49
11.3836
2.77875
1.45674
0.457279
0.49423
1.5618
2.51556
3.46229
-0.213151
1.06168
4.34735
0.461318
0.733405
1.98733
11.6255
0.514994
8.46116
1.41211
0.541274
-0.298044
0.528569
24.7447
35.5923
4.6673
0.588002
0.198396
-0.11792
-0.446901
-0.325719
-0.190898
-0.400149
-0.675965
0.302508
3.9224
-0.386475
-1.31226
-1.29093
-1.37921
-0.508148
-0.790063
-0.628419
-0.595167
-0.827873
-1.13901
-0.440855
1.94748
0.684814
-0.795433
-0.758629
-0.937935
-0.865275
-0.917937
-0.987922
-0.663561
-0.752824
-0.0922824
4.01644
-0.391397
-1.93647
-1.67204
-1.4038
-1.171
-1.19996
-0.981943
-1.27912
-1.50485
-1.57585
-1.3569
-0.625625
-0.892214
-1.30939
-1.13787
-1.21532
-1.10516
-1.10591
-1.09259
-1.04776
-1.035
-0.617438
7.11273
-0.281694
-1.71647
-1.53735
-1.61356
-1.45555
-1.55647
-1.51925
-1.53637
-1.72369
-1.58686
-1.89
-1.54
-1.53822
-1.25567
-1.5335
-1.2713
-1.39608
-1.37179
-1.35292
-1.23437
-1.24535
-0.693877
12.2528
-1.30275
-1.81503
-1.75678
-1.7876
-1.71059
-1.78664
-1.68408
-1.82577
-1.77788
-1.86688
-1.78541
-1.64211
-1.27435
-1.48831
-1.34648
-1.51152
-1.40904
-1.46909
-1.49326
-1.49214
-1.66773
-0.876918
17.9996
16.8395
-0.00834576
-1.76912
-1.86418
-1.85438
-1.87891
-1.87427
-1.89977
-1.89541
-1.85796
-1.89383
-1.79734
-1.74535
-1.6675
-1.70448
-1.67771
-1.70694
-1.73752
-1.74272
-1.85384
-1.90951
-2.78439
18.6779
68.0133
6.65404
-2.12098
-2.08794
-2.01934
-2.04511
-2.0236
-2.02106
-2.02333
-1.96807
-1.95585
-1.90754
-1.72065
-1.78408
-1.77045
-1.83685
-1.78836
-1.86488
-1.9049
-1.86029
-1.81648
-1.73226
10.4668
146.982
8.77003
-2.35078
-2.27581
-2.17117
-2.17282
-2.14469
-2.15432
-2.12684
-2.13226
-2.1041
-2.0447
-2.05223
-1.93934
-2.03503
-2.02347
-2.03561
-2.19376
-1.9774
-2.3954
-2.22912
-2.53553
-1.75235
80.7023
-1.83633
-2.59157
-2.37723
-2.28448
-2.30982
-2.26114
-2.27784
-2.27514
-2.2236
-2.19695
-2.17949
-2.15626
-2.21048
-2.04352
-2.16898
-2.10224
-2.20592
-2.27826
-2.51437
-2.47661
-2.52257
-2.95664
-2.29846
-2.63552
-2.49286
-2.50719
-2.38976
-2.41868
-2.40979
-2.39216
-2.39067
-2.36858
-2.34352
-2.33546
-2.40384
-2.38672
-2.48585
-2.20338
-2.50776
-2.43166
-2.44926
-2.39351
-2.47525
-2.60486
-2.50073
-2.71623
-2.51618
-2.70342
-2.55217
-2.54124
-2.55775
-2.51635
-2.53661
-2.52596
-2.49566
-2.48494
-2.44925
-2.5565
-2.57463
-2.57541
-2.67332
-2.62091
-2.62443
-2.50317
-2.58586
-2.66961
-2.6639
-2.71847
-2.59087
-2.82427
-2.67512
-2.65843
-2.63748
-2.66097
-2.661
-2.63992
-2.62851
-2.65838
-2.5987
-2.5972
-2.74474
-2.75365
-2.76056
-2.72749
-2.80362
-2.64046
-2.85476
-2.69216
-2.67534
-2.74342
-2.82097
-2.94908
-2.8064
-2.84601
-2.77943
-2.80309
-2.81153
-2.78104
-2.80015
-2.78231
-2.74199
-2.75039
-2.76654
-2.88091
-2.89975
-2.8824
-2.98592
-2.89401
-2.78882
-2.87483
-2.988
-2.93753
-2.94387
-2.94432
-2.94581
-2.98941
-2.91292
-2.95463
-2.89075
-2.91665
-2.95674
-2.9396
-2.92844
-2.916
-2.88141
-2.86463
-3.10365
-3.12916
-3.1558
-3.02459
-3.13534
-3.13723
-3.06809
-3.08132
-3.09317
-3.10285
-3.09761
-3.15568
-3.04713
-3.10977
-3.04351
-3.16173
-3.05668
-3.10651
-3.02398
-3.03078
-3.02847
-3.04311
-3.05532
-3.17388
-3.12537
-3.07117
-3.17481
-3.09477
-3.28039
-3.23282
-3.20997
-3.20022
-3.19396
-3.18463
-3.18076
-3.20567
-3.15372
-3.23978
-3.13132
-3.21782
-3.21074
-3.15921
-3.2168
-3.17398
-3.18754
-3.13842
-3.24893
-3.28405
-3.30295
-3.28624
-3.29794
-3.26917
-3.27528
-3.38602
-3.33879
-3.38017
-3.41102
-3.42816
-3.414
-3.39798
-3.34712
-3.45551
-3.34022
-3.31341
-3.31856
-3.35841
-3.31014
-3.33275
-3.32074
-3.42912
-3.42352
-3.411
-3.43378
-3.41822
-3.44035
-3.44491
-3.39043
-3.43229
-3.43201
-3.40387
-3.41861
-3.41399
-3.48113
-3.48742
-3.50611
-3.41347
-3.55723
-3.47212
-3.49668
-3.45779
-3.47279
-3.44637
-3.55644
-3.56377
-3.568
-3.56919
-3.57453
-3.57436
-3.58026
-3.60255
-3.60507
-3.6174
-3.62954
-3.61954
-3.63705
-3.59319
-3.61938
-3.59773
-3.64452
-3.59837
-3.62953
-3.64462
-3.59107
-3.60809
-3.59917
-3.70812
-3.7073
-3.70323
-3.70593
-3.70079
-3.69798
-3.70121
-3.69606
-3.69476
-3.70596
-3.67301
-3.70943
-3.72261
-3.7568
-3.77038
-3.73507
-3.74577
-3.73964
-3.72796
-3.73303
-3.75278
-3.75035
-3.75145
-3.84769
-3.84958
-3.85191
-3.85526
-3.86232
-3.86973
-3.87589
-3.87296
-3.89082
-3.87525
-3.91915
-3.89434
-3.8874
-3.88954
-3.83906
-3.9369
-3.8415
-3.94466
-3.88256
-3.9105
-3.92115
-3.88865
-3.88959
-3.98891
-3.98923
-3.98527
-3.97847
-3.96824
-3.92925
-3.94089
-3.98229
-3.98946
-4.00348
-3.99206
-4.01988
-4.01594
-4.03641
-4.04705
-4.0761
-4.04267
-4.04624
-4.02813
-4.04566
-3.96074
-4.05938
-4.01089
-4.13247
-4.13367
-4.13753
-4.14686
-4.16284
-4.19715
-4.19929
-4.16319
-4.15738
-4.1454
-4.16418
-4.148
-4.14929
-4.1561
-4.13408
-4.1379
-4.10928
-4.19758
-4.12529
-4.17954
-4.23822
-4.21184
-4.18845
-4.27132
-4.27226
-4.27068
-4.26857
-4.26353
-4.26773
-4.26102
-4.29286
-4.3281
-4.33038
-4.30915
-4.31714
-4.30013
-4.31039
-4.3226
-4.32084
-4.39717
-4.2878
-4.35762
-4.30846
-4.29393
-4.26821
-4.31594
-4.41593
-4.41673
-4.41783
-4.42685
-4.43176
-4.47323
-4.44822
-4.43158
-4.39799
-4.38612
-4.40731
-4.38356
-4.40793
-4.42387
-4.42058
-4.42295
-4.39037
-4.44657
-4.45496
-4.43572
-4.43635
-4.52974
-4.47237
-4.55672
-4.55637
-4.55594
-4.55338
-4.56075
-4.51757
-4.55188
-4.51771
-4.56715
-4.58316
-4.58441
-4.60845
-4.58643
-4.58391
-4.58993
-4.58916
-4.6182
-4.59069
-4.59694
-4.62239
-4.65781
-4.5571
-4.63775
-4.69489
-4.69458
-4.69089
-4.69591
-4.65074
-4.70747
-4.70252
-4.73188
-4.70344
-4.68145
-4.69346
-4.6971
-4.70015
-4.70646
-4.70827
-4.70788
-4.70315
-4.7163
-4.71343
-4.72382
-4.68458
-4.76864
-4.69412
-4.84064
-4.83715
-4.84589
-4.83897
-4.88388
-4.83742
-4.84899
-4.84291
-4.85705
-4.87517
-4.88066
-4.86841
-4.83825
-4.8508
-4.85715
-4.85952
-4.87367
-4.87587
-4.88047
-4.91184
-4.89352
-4.90697
-4.92911
-4.97712
-4.97705
-4.98396
-4.98255
-4.98356
-4.9886
-4.98538
-4.98862
-4.97285
-4.92653
-4.95195
-4.97937
-5.00554
-4.98666
-4.9901
-4.98453
-4.98852
-4.98305
-4.99433
-4.96945
-4.99704
-4.99549
-5.0345
-5.1237
-5.12164
-5.12403
-5.11618
-5.13147
-5.12126
-5.12652
-5.13181
-5.13798
-5.18205
-5.1411
-5.14556
-5.13483
-5.13484
-5.13771
-5.13663
-5.14479
-5.1437
-5.14687
-5.16009
-5.13094
-5.17912
-5.16607
-5.24598
-5.25321
-5.26391
-5.27794
-5.2794
-5.27991
-5.30135
-5.27922
-5.26525
-5.25887
-5.25435
-5.26139
-5.26701
-5.25647
-5.25464
-5.24766
-5.2527
-5.24588
-5.26999
-5.24466
-5.3014
-5.24981
-5.3044
-5.42961
-5.41533
-5.41596
-5.36288
-5.39995
-5.4061
-5.38938
-5.40997
-5.42406
-5.42555
-5.42928
-5.42379
-5.42861
-5.42769
-5.43407
-5.43377
-5.43814
-5.4384
-5.42688
-5.43191
-5.41874
-5.39925
-5.44063
-5.46578
-5.4791
-5.51157
-5.60087
-5.57016
-5.52652
-5.51209
-5.55968
-5.49811
-5.55904
-5.50224
-5.54081
-5.53188
-5.50211
-5.48088
-5.47454
-5.4732
-5.47589
-5.5019
-5.50734
-5.54329
-5.54858
-5.54625
-5.8137
-5.80385
-5.77507
-5.71682
-5.71245
-5.74029
-5.75664
-5.68647
-5.78234
-5.67567
-5.77998
-5.69977
-5.74392
-5.7508
-5.78803
-5.77975
-5.7857
-5.77877
-5.74398
-5.75303
-5.70611
-5.69941
-5.71789
-63.4466
-452.304
251.79
702.947
-101.331
-240.681
29.4029
435.718
168.792
-19.6079
475.023
489.189
434.296
385.111
387.351
367.121
648.506
520.242
460.954
411.01
1419.91
1292.99
1311.5
1335.21
1644.33
1662.03
1652.87
1547.91
773.664
774.984
724.051
562.615
89.9885
112.098
88.695
58.8461
7.25598
11.6989
14.0555
17.6561
10.6258
11.9513
6.60353
2.13813
-1.22662
-1.30601
-1.23442
-1.10559
-1.58378
-1.49078
-1.45592
-1.39721
-1.73877
-1.70384
-1.6638
-1.61194
-1.87103
-1.83236
-1.79521
-1.76496
-2.00176
-1.97691
-1.96475
-1.95785
-2.18615
-2.15965
-2.15076
-2.11984
-2.27976
-2.27043
-2.26973
-2.25722
-2.44334
-2.43805
-2.42339
-2.41524
-2.55007
-2.55416
-2.54823
-2.54569
-2.75028
-2.74966
-2.71802
-2.71966
-2.82835
-2.81609
-2.82594
-2.80578
-3.05453
-3.04025
-3.02448
-3.0178
-3.14866
-3.15612
-3.15492
-3.13628
-3.33012
-3.30558
-3.31659
-3.32603
-3.44287
-3.46134
-3.44721
-3.44893
-3.62872
-3.60079
-3.61054
-3.61601
-3.74192
-3.76634
-3.75288
-3.74859
-3.88414
-3.89074
-3.90966
-3.91596
-4.07429
-4.0441
-4.04264
-4.05611
-4.16735
-4.21279
-4.18608
-4.20417
-4.33373
-4.31818
-4.32494
-4.35349
-4.49541
-4.48615
-4.51841
-4.50345
-4.62747
-4.62617
-4.6111
-4.61832
-4.72981
-4.76437
-4.75529
-4.78819
-4.93533
-4.9212
-4.90938
-4.91762
-4.98766
-5.00062
-5.02207
-5.0342
-5.19171
-5.19643
-5.18604
-5.17108
-5.24727
-5.2881
-5.27826
-5.32073
-5.41829
-5.46416
-5.42231
-5.44917
-5.52266
-5.52813
-5.5441
-5.55126
-5.70885
-5.70814
-5.71711
-5.6888
649.146
969.244
1398.83
1917.15
1462.25
1339.69
1736.46
2143.84
1233.45
962.577
1035.15
1122.48
1478.24
1783.87
1973.24
2147.42
2445.86
2918.08
2943.49
492.115
857.421
1381.19
1038.76
1182.3
1534.41
1333.36
1150.31
983.313
265.625
717.533
1171.07
1857.77
1956.07
2178.24
2243.97
2513.8
2836.75
2820.73
434.024
540.385
584.628
747.199
115.025
459.21
387.027
410.489
595.287
657.683
1143.14
1514.19
1728.7
1698.58
1812.86
2145.55
2439.87
2793.43
2683.86
426.534
516.653
772.542
228.569
442.479
546.648
308.59
586.942
649.867
1584.03
1637.04
1220.19
869.303
960.19
1173.97
1755.01
2068.25
2319.89
2396.61
733.145
1340.85
1269.26
1106.84
1232
1371.58
1148.08
1540.44
1689.42
1053.96
428.41
319.646
325.944
508.376
592.981
1375.08
1601.17
1980.46
2157.98
1551.13
1731.23
1639.84
1351.04
1403.37
1726.02
1678.33
1813.03
1270.64
512.04
154.62
109.169
105.697
104.175
124.523
711.035
954.144
1701.19
1947.8
1253.69
770.256
526.635
488.975
606.095
961.223
1213.08
1294.44
702.445
174.509
34.6525
21.5584
21.8327
17.5295
20.8825
175.549
479.939
1537.47
1760.92
253.75
169.048
216.749
227.374
337.719
522.751
709.536
706.364
255.024
37.0447
6.53991
5.41129
5.09825
8.3986
8.59518
40.582
352.965
1383.48
1617.51
42.2024
53.3129
148.525
94.6596
134.138
384.393
480.241
316.984
36.1054
3.10871
1.94796
2.27834
1.70293
3.05786
4.42885
22.1104
272.038
1304.03
1518.6
25.4577
24.6802
82.0155
74.9741
25.4404
76.1765
216.368
181.147
54.4547
1.23945
1.16116
1.04102
0.963299
1.78164
2.36339
17.1321
150.974
1036.16
1417.79
0.247472
-0.277592
2.84935
4.12261
0.354949
-3.8275
11.5133
22.5284
8.03472
-0.379617
0.390916
0.41362
0.480464
0.65001
1.71353
12.9244
80.1607
668.616
1360.52
-1.04962
-0.7864
-1.131
-1.27947
-1.29951
-1.78416
-1.63381
-0.483704
-0.845933
-0.843669
0.114619
0.145188
0.186188
0.170207
1.38026
9.1334
55.6682
429.172
1347.32
-1.3582
-1.39012
-1.34449
-1.65178
-1.40839
-1.7832
-2.02792
-1.70295
-1.58034
-1.27388
-0.62635
-0.380626
-0.0703798
-0.236423
0.423359
3.7111
44.1602
300.146
1232.41
-1.56203
-1.47456
-1.59666
-1.55921
-1.72794
-1.68427
-1.7555
-1.60977
-1.54111
-1.3361
-1.06594
-0.728107
-0.513374
-0.770011
-0.29642
1.13897
31.9278
206.809
1128.09
-1.7283
-1.69496
-1.7189
-1.79705
-1.73299
-1.80016
-1.81891
-1.83244
-1.65361
-1.55186
-1.38156
-1.31481
-1.07598
-1.41643
-0.0299165
0.0181376
21.6391
106.901
996.031
-1.91175
-1.89143
-1.91623
-1.89519
-1.93372
-1.89815
-1.93989
-1.86897
-1.83607
-1.75455
-1.65729
-1.61303
-1.41433
-1.5154
-1.90304
-0.831502
11.2752
35.0071
803.797
-2.11046
-2.08537
-2.05661
-2.05129
-2.02933
-2.07085
-1.99672
-1.99633
-1.93916
-1.89151
-1.81526
-1.86023
-1.73542
-1.89244
-2.37637
-1.63429
5.84787
14.8128
660.543
-2.23397
-2.20703
-2.20932
-2.16873
-2.18447
-2.14673
-2.15199
-2.12909
-2.10708
-2.06589
-2.00351
-1.99598
-2.02177
-1.56131
-0.430082
-0.445931
1.25444
7.45137
567.415
-2.4095
-2.3528
-2.35313
-2.32355
-2.32342
-2.34651
-2.25857
-2.26508
-2.21607
-2.21066
-2.1391
-2.17732
-2.09656
-1.92173
-1.737
-1.53248
0.148111
5.23098
442.127
-2.51245
-2.53845
-2.50336
-2.47853
-2.44523
-2.43735
-2.40357
-2.39664
-2.3872
-2.30057
-2.27901
-2.22074
-2.2249
-2.04719
-1.54741
-1.11624
-0.304853
1.76693
323.931
-2.72714
-2.67227
-2.65352
-2.63416
-2.60968
-2.60755
-2.55088
-2.55717
-2.48426
-2.50563
-2.37266
-2.44119
-2.25649
-2.22484
-1.90542
-1.53512
-1.7018
-0.876124
232.247
-2.82072
-2.83649
-2.79002
-2.77056
-2.74714
-2.74234
-2.7174
-2.68084
-2.63945
-2.63791
-2.51776
-2.47132
-2.40022
-2.33273
-2.15207
-1.97774
-1.86407
-2.11697
175.123
-2.99478
-2.94665
-2.97175
-2.94954
-2.91154
-2.90519
-2.88242
-2.84773
-2.8048
-2.81157
-2.69564
-2.63209
-2.56888
-2.47087
-2.29472
-2.13353
-1.91915
-2.64465
134.655
-3.14673
-3.13826
-3.11893
-3.07769
-3.10328
-3.05221
-3.06168
-3.0238
-2.99697
-2.98147
-2.89531
-2.81246
-2.59845
-2.47847
-2.2435
-1.41184
-2.143
-2.57514
105.685
-3.31861
-3.30664
-3.2936
-3.28097
-3.25964
-3.2495
-3.22283
-3.23465
-3.17849
-3.18369
-3.06481
-2.94627
-2.88722
-2.71007
-2.72736
-3.35885
-2.73914
-2.74321
81.1067
-3.44268
-3.48941
-3.44612
-3.44211
-3.44306
-3.43392
-3.39477
-3.43671
-3.39696
-3.38862
-3.26231
-3.17582
-3.01749
-3.05236
-2.52497
-3.31331
-2.53497
-3.01237
63.5108
-3.6131
-3.60881
-3.64665
-3.62826
-3.62571
-3.60518
-3.64802
-3.58409
-3.5862
-3.59605
-3.45356
-3.44489
-3.32113
-3.12668
-3.27432
-2.72012
-2.43627
-3.11343
50.7564
-3.75635
-3.77644
-3.78543
-3.77408
-3.82237
-3.80576
-3.80292
-3.8464
-3.81499
-3.65869
-3.85466
-3.74899
-3.57035
-3.84357
-2.98069
-3.31275
-3.2156
-3.67725
37.4519
-3.881
-3.91189
-3.93925
-3.96723
-3.98439
-3.9874
-4.04805
-4.00127
-4.02738
-4.16428
-3.92294
-4.18556
-4.10992
-4.02246
-3.96158
-3.71934
-4.13328
-4.15902
28.3572
-4.08972
-4.0903
-4.10549
-4.13696
-4.16185
-4.19959
-4.20184
-4.2478
-4.38336
-4.32602
-4.55423
-4.81109
-4.65734
-4.99009
-4.32163
-4.75326
-4.40881
-4.28381
22.2264
-4.18319
-4.18994
-4.22972
-4.32096
-4.28508
-4.31523
-4.35445
-4.38976
-4.54973
-4.67974
-4.75138
-4.99974
-5.29168
-6.4087
-6.10733
-6.1892
-5.6964
-4.88657
16.2687
-4.39331
-4.41203
-4.40111
-4.46104
-4.46499
-4.53365
-4.67291
-4.56718
-4.75818
-4.94092
-5.17071
-5.80939
-6.34296
-7.72588
-8.43061
-7.04381
-5.7339
-8.0058
13.1562
-4.46323
-4.53029
-4.51204
-4.53503
-4.59313
-4.68869
-4.69088
-4.97032
-4.86117
-5.17985
-5.30762
-5.81718
-6.59886
-9.43552
-8.42728
-7.78139
-5.69256
-7.06018
11.8678
-4.63828
-4.70168
-4.65366
-4.81367
-4.77221
-4.80445
-4.96802
-4.84994
-5.2581
-5.16611
-5.5727
-5.90753
-6.55637
-8.35286
-6.35742
-8.30254
-5.00809
-8.70022
10.6848
-4.7711
-4.78573
-4.83444
-4.81375
-4.90732
-4.95316
-5.00356
-5.15539
-5.29877
-5.40888
-5.32374
-5.90204
-6.25958
-6.81668
-8.40675
-9.53631
-9.18135
-9.75941
25.2367
-4.90843
-4.95389
-4.9582
-5.01625
-5.03515
-5.03932
-5.18605
-5.22573
-5.28692
-5.48178
-5.67559
-5.93741
-6.42924
-7.48533
-7.613
-11.2802
-9.45922
-14.1053
-21.3715
-5.04009
-5.0651
-5.09621
-5.12409
-5.15724
-5.33157
-5.24203
-5.37207
-5.39089
-5.5914
-5.51924
-5.89577
-6.22875
-7.08597
-6.98351
-10.3544
-10.0107
-9.7551
-8.74823
-5.14281
-5.20898
-5.21577
-5.25478
-5.24807
-5.29734
-5.3618
-5.4515
-5.47738
-5.64298
-5.77862
-5.988
-6.21107
-6.85951
-6.55833
-8.87163
-8.69019
-7.11526
-2.49554
-5.31905
-5.30634
-5.35826
-5.34732
-5.36136
-5.44503
-5.46175
-5.51508
-5.53608
-5.70655
-5.68978
-5.91389
-6.06121
-6.41433
-6.3861
-7.31786
-7.1936
-7.4187
-7.69826
-5.44445
-5.48076
-5.48348
-5.48217
-5.53946
-5.53624
-5.55952
-5.59771
-5.62867
-5.70565
-5.80018
-5.7743
-5.953
-6.21351
-6.33576
-6.93112
-9.05
-11.0121
-14.1129
-5.55722
-5.507
-5.58115
-5.53692
-5.59925
-5.59741
-5.60295
-5.72009
-5.65273
-5.66089
-5.77581
-5.77759
-5.91634
-5.94729
-6.01742
-6.88837
-10.4796
-11.4696
-19.83
-5.69954
-5.73585
-5.68263
-5.76671
-5.70731
-5.76018
-5.78154
-5.70175
-5.82553
-5.8429
-5.75557
-5.79491
-5.74414
-5.86642
-6.20184
-6.84778
-9.93218
-19.9083
-37.1968
)
;

boundaryField
{
    leftWall
    {
        type            calculated;
        value           nonuniform List<scalar> 
50
(
1011.84
953.989
893.706
840.176
773.915
731.51
663.714
614.821
508.235
382.633
575.857
1301.55
1151.49
1477.18
569.503
55.8478
11.3836
4.6673
0.684814
-0.892214
-1.53822
-1.27435
-1.74535
-1.72065
-2.05223
-2.15626
-2.40384
-2.5565
-2.74474
-2.88091
-3.10365
-3.17388
-3.24893
-3.42912
-3.55644
-3.70812
-3.84769
-3.98891
-4.13247
-4.27132
-4.41593
-4.55672
-4.69489
-4.84064
-4.97712
-5.1237
-5.24598
-5.42961
-5.46578
-5.8137
)
;
    }
    rightWall
    {
        type            calculated;
        value           nonuniform List<scalar> 
50
(
1907.16
2259
2479.87
2638.32
2710.4
2792.16
2849.69
2904.03
2943.49
2820.73
2683.86
2396.61
2157.98
1947.8
1760.92
1617.51
1518.6
1417.79
1360.52
1347.32
1232.41
1128.09
996.031
803.797
660.543
567.415
442.127
323.931
232.247
175.123
134.655
105.685
81.1067
63.5108
50.7564
37.4519
28.3572
22.2264
16.2687
13.1562
11.8678
10.6848
25.2367
-21.3715
-8.74823
-2.49554
-7.69826
-14.1129
-19.83
-37.1968
)
;
    }
    lowerWall
    {
        type            calculated;
        value           nonuniform List<scalar> 
62
(
1041.27
1040.14
1029.92
1025.73
992.213
1002.58
929.04
986.248
877.01
840.128
1066.27
987.681
992.052
1001.47
1085.12
956.079
999.325
1081.58
1247.54
1265.99
1396.68
1431.35
1965.55
1949.45
1381.04
1327.34
1246.51
1184.3
1098.55
1021.82
809.488
-5.45667
-394.944
303.37
709.829
491.783
481.778
471.629
471.98
472.191
472.49
472.003
472.836
492.305
507.947
580.214
747.669
1008.55
1250.08
1467.83
1568.86
1692.4
1908.61
1598.27
1939.98
2177.78
2574.06
2870.34
2910.01
2528.03
1842.25
1911.54
)
;
    }
    atmosphere
    {
        type            calculated;
        value           nonuniform List<scalar> 
46
(
-5.7861
-5.78874
-5.79005
-5.8044
-5.78271
-5.77822
-5.77428
-5.76435
-5.77925
-5.75782
-5.77841
-5.76109
-5.77546
-5.77027
-5.77499
-5.76961
-5.76979
-5.76569
-5.76237
-5.7632
-5.75628
-5.76255
-5.75386
-5.75238
-5.75039
-5.75638
-5.74699
-5.75311
-5.74194
-5.74483
-5.7539
-5.7558
-5.75481
-5.7617
-5.76603
-5.76947
-5.76128
-5.73777
-5.73094
-5.74173
-5.73325
-5.79726
-6.32777
-12.7674
-25.0491
-51.1376
)
;
    }
    defaultFaces
    {
        type            empty;
    }
}


// ************************************************************************* //
