/*--------------------------------*- C++ -*----------------------------------*\
| =========                 |                                                 |
| \\      /  F ield         | foam-extend: Open Source CFD                    |
|  \\    /   O peration     | Version:     4.1                                |
|   \\  /    A nd           | Web:         http://www.foam-extend.org         |
|    \\/     M anipulation  |                                                 |
\*---------------------------------------------------------------------------*/
FoamFile
{
    version     2.0;
    format      ascii;
    class       volScalarField;
    location    "0.45";
    object      pd;
}
// * * * * * * * * * * * * * * * * * * * * * * * * * * * * * * * * * * * * * //

dimensions      [1 -1 -2 0 0 0 0];

internalField   nonuniform List<scalar> 
2268
(
1041.27
1040.14
1029.92
1025.73
992.213
1002.58
929.04
986.248
877.01
840.128
1066.27
987.681
992.052
1001.47
1085.12
956.079
999.325
1081.58
1247.54
1265.99
1396.68
1431.35
1965.55
1042.28
1040.47
1030.38
1025.76
991.166
997.93
929.884
986.727
876.324
804.644
1038.08
990.457
986.066
964.78
1013.42
1042.92
973.619
1056.23
1282.44
1274.64
1394.17
1407.88
1467.78
1040.85
1039.78
1030.3
1025.24
987.617
998.58
928.205
971.381
857.52
882.837
899.154
1031.36
953.867
1040.74
991.449
998.877
989.014
1074.21
1183.88
1294.74
1357.38
1434.07
1470.88
1046.18
1041.01
1032.25
1025.74
984.171
986.541
935.084
984.281
856.461
900.391
900.624
976.096
1017.4
863.117
971.877
978.12
1053.42
1100.29
1267.98
1252.41
1375.63
1425.56
1446.11
1038.78
1038.38
1032.08
1024.85
977.37
974.362
913.682
977.098
810.08
928.478
864.293
1005.56
830.037
1013.92
905.848
1014.43
1071.11
1109.56
1199.82
1206.94
1332.57
1382.67
1439.25
1055.23
1041.74
1035.76
1026.47
969.66
975.332
892.674
1030.38
795.168
955.223
892.53
964.373
926.051
1023.28
800.897
942.546
1142.87
1107.82
1235.12
1196.38
1335.45
1359.89
1407.69
1046.29
1034.93
1035.93
1025.91
960.083
960.011
933.339
991.122
776.783
1005.55
926.591
964.032
1033.23
948.724
911.661
902.93
1159.12
1100.67
1222.18
1107.18
1294.84
1284.34
1384.99
1056.17
1046.8
1039.04
1031.74
974.546
978.568
916.987
1075.76
966.747
1112.98
1068.31
1133.78
945.528
1145.26
1077.05
951.526
1256.17
1227.75
1350.27
1001.17
1274.86
1245.05
1223.87
492.305
507.947
580.214
747.669
1008.55
1250.08
1467.83
1568.86
1692.4
1908.61
1598.27
1939.98
2177.78
2574.06
2870.34
2910.01
2528.03
1842.25
1911.54
483
473.698
471.94
482.326
518.395
595.777
749.215
1283.67
1558.75
1719.72
1557.27
1763.98
2177.3
2753.6
3003.09
2992.74
2867.36
2043.09
2278.1
473.15
467.196
465.902
464.443
469.955
487.328
629.981
1139.89
1376.87
1560.23
1793.94
1402.53
2346.04
2481.28
2899.66
3168.46
3093.98
2611.67
2517.8
473.843
467.529
465.78
463.752
464.49
463.985
484.502
942.094
1377.64
1550.24
2188.8
1931.1
2305.23
2364.41
2616.89
3017.64
3258.38
2973.27
2697.85
474.394
468.103
466.885
463.525
464.19
465.396
534.904
1107.21
1849.62
1996.21
2203.83
2202
2077.14
2193.52
2460.32
2718.26
3267.93
3176.78
2791.26
474.942
470.846
471.247
470.426
467.866
471.92
629.753
884.051
1317.65
1671.78
2178.17
2140.25
1958.96
2137.81
2379.38
2643.89
3120.51
3284.74
2897.55
474.462
477.086
508.406
566.102
481.034
467.497
490.051
625.054
2146.94
1956.73
2202.3
1961.87
1879.77
2100.55
2323.05
2575.19
2951.4
3308.27
2980.74
474.891
621.012
833.752
1137.52
670.16
644.598
706.396
1099.58
1769.15
2033.54
1811.65
1679.69
1838.42
2073.83
2293.78
2545.76
2847.75
3273.9
3064.86
1040.48
1027.24
1044.69
1118.87
1062.48
1081.92
1219.32
1344.68
1438.87
1492.25
1363.85
1323.27
1479.14
1669.74
1393.33
1509.59
2100.5
1999.23
1954.97
1411.57
1163.76
1056.01
917.114
1028.79
1353.37
1203.39
1998.42
1876.41
1867.61
2137.95
2164.34
2154.45
2127.93
2028.89
1920.7
2165.42
2155.5
2259.99
2308.55
2368.8
2319.82
2370.8
2116.61
1261.19
856.024
610.624
1266.36
2113.05
2142.96
1474.88
1942.78
1908.1
1587.66
1503
1308.56
1335.34
1578.11
2038.45
2223.58
2220.53
2256.51
2303.02
2359.9
2189.71
2188.02
2372.82
1614.92
1089.74
545.791
1936.81
1864.29
1474.02
506.247
832.511
814.176
721.712
596.883
478.675
349.601
411.884
642.637
1452.05
2207.99
2305.72
2210.29
2306.63
2002.45
2025.24
2193.74
2023.04
1352.26
982.026
1868.06
1280.26
608.86
189.789
232.934
257.018
334.568
216.915
216.118
140.826
147.933
237.754
518.233
1440.34
2216.07
2303.21
2144.38
1738.41
1784.45
1849.59
2159.01
2306.59
1916.29
2092.64
946.547
294.005
97.3925
83.9836
117.039
187.224
120.334
124.506
82.3853
93.045
115.678
249.387
1047.02
1929.8
1726.55
972.666
656.962
615.882
949.82
1512.42
2143.26
2398.48
789.698
348.016
144.667
52.3991
42.9034
67.9738
90.8239
70.193
64.4922
40.6926
53.6448
48.0762
148.952
470.065
894.295
489.271
402.067
224.215
59.5686
182.965
479.785
1109.91
1943.48
108.414
75.7363
47.1051
24.5186
25.1561
36.2545
49.6771
38.1575
24.8894
17.4363
30.647
17.8819
44.1815
80.9898
155.284
52.734
502.132
50.7435
11.898
17.6297
110.88
530.135
801.594
39.8655
20.3393
12.2158
8.46496
9.04206
16.1922
19.6512
19.173
7.94403
9.31852
25.9491
9.80193
16.438
21.7569
43.5081
13.1306
35.8731
11.7037
9.67397
9.05917
16.2963
74.0642
94.385
24.3691
9.5589
6.57662
4.93601
3.45353
6.20357
7.18959
5.5551
3.00603
6.88473
26.4204
7.34477
5.29725
6.81832
8.40681
3.65658
3.30552
4.32479
7.85276
6.78689
9.9363
17.5356
22.3469
14.2645
4.52165
3.33728
2.42905
1.50904
2.16401
2.12972
1.75867
1.86596
6.71516
29.9185
7.3838
1.05344
1.70172
3.09044
2.70269
3.8251
4.3468
2.71026
2.82365
3.92999
5.98429
12.1217
8.2525
2.65943
1.85818
1.23648
1.06551
1.00346
0.98115
0.947981
1.64419
8.07569
40.6091
13.0517
0.90443
0.945855
1.11707
1.52164
1.72184
2.06136
1.94517
1.86854
1.63411
1.88155
3.74489
4.29073
1.86253
1.01621
0.874021
0.707956
0.685744
0.698124
0.82816
1.64033
10.0053
58.1047
18.2346
1.39375
0.45786
0.364228
0.642022
1.13591
1.52587
1.29557
0.989743
0.371133
0.335591
0.469703
2.61041
1.11701
1.03608
0.666699
0.755399
0.694603
0.669718
0.677133
1.20121
10.5152
76.0079
76.1184
17.1917
0.932566
0.346794
0.404537
0.691802
0.88554
0.915387
0.687692
0.399243
0.279136
0.368483
1.01618
0.665827
0.659666
0.610492
0.579339
0.549024
0.543935
0.43426
0.662051
6.58679
81.9954
192.156
48.9595
2.04839
0.336826
0.304409
0.357449
0.39261
0.456745
0.467913
0.351555
0.335873
0.380414
0.832943
0.645767
0.668636
0.574821
0.623043
0.546627
0.50665
0.551791
1.07154
9.08366
63.8775
334.791
61.241
4.60809
0.382536
0.245832
0.245279
0.275581
0.270975
0.302949
0.281086
0.307966
0.368016
0.507221
0.602131
0.51005
0.513157
0.500974
0.342849
0.559212
0.141456
0.355312
1.34002
15.1287
228.551
13.3556
1.62611
0.199034
0.252976
0.227111
0.275691
0.258997
0.261692
0.313182
0.339677
0.357371
0.507734
0.452469
0.620729
0.492811
0.559535
0.455855
0.383519
0.147583
0.185725
0.157777
0.650287
9.21648
0.164511
0.169464
0.155792
0.272252
0.243156
0.252017
0.269635
0.271125
0.293219
0.318266
0.326345
0.383147
0.400303
0.301756
0.583606
0.279211
0.355305
0.337705
0.393464
0.311727
0.182174
0.286453
0.0717838
0.270829
0.0835755
0.23484
0.24578
0.229245
0.270629
0.25036
0.261013
0.291313
0.302029
0.337726
0.355667
0.337537
0.336912
0.238858
0.291257
0.287729
0.408991
0.326306
0.242557
0.248267
0.193692
0.321297
0.0878955
0.23705
0.253738
0.274683
0.251199
0.251165
0.272244
0.283657
0.253782
0.313465
0.314962
0.292618
0.28371
0.276796
0.309863
0.233741
0.396901
0.182595
0.345201
0.362014
0.29394
0.216386
0.0882797
0.230957
0.191348
0.257926
0.234266
0.225826
0.256317
0.237211
0.255052
0.295363
0.286972
0.270822
0.281644
0.262804
0.280149
0.17663
0.268543
0.373731
0.287724
0.174553
0.225027
0.218681
0.218228
0.21674
0.173139
0.249632
0.207926
0.271801
0.245899
0.20581
0.222954
0.234111
0.246551
0.281141
0.297922
0.184101
0.158587
0.131947
0.263152
0.15241
0.150516
0.219653
0.20643
0.194573
0.184898
0.190138
0.132065
0.240616
0.177981
0.244237
0.126016
0.231065
0.181239
0.263763
0.256964
0.259273
0.244636
0.232429
0.23906
0.287576
0.341774
0.238135
0.318168
0.132551
0.180123
0.202968
0.212723
0.218976
0.228316
0.232177
0.207275
0.259225
0.173163
0.281619
0.195124
0.202201
0.25373
0.196138
0.238965
0.225405
0.274517
0.289203
0.254081
0.235189
0.251896
0.240199
0.268966
0.262854
0.15212
0.199347
0.157962
0.127116
0.109972
0.124135
0.14016
0.191021
0.0826305
0.197912
0.224724
0.219572
0.179722
0.227991
0.205382
0.217394
0.234212
0.239806
0.252331
0.229553
0.245106
0.222983
0.218425
0.2729
0.231036
0.231315
0.259457
0.244715
0.24934
0.182201
0.175908
0.157223
0.249865
0.106103
0.191206
0.166655
0.205541
0.190544
0.21696
0.232087
0.22476
0.220525
0.219333
0.213992
0.214167
0.208262
0.185973
0.183457
0.171127
0.158985
0.168984
0.151476
0.195338
0.169146
0.190798
0.144002
0.190157
0.158992
0.14391
0.197456
0.180439
0.189359
0.205594
0.206418
0.210488
0.207785
0.212933
0.215734
0.212506
0.217662
0.218961
0.207756
0.240713
0.204291
0.191107
0.156923
0.143342
0.178648
0.167951
0.17408
0.185755
0.180692
0.160936
0.16337
0.162266
0.191228
0.189336
0.187
0.183652
0.176595
0.169185
0.163022
0.165958
0.14809
0.163665
0.11976
0.144572
0.151514
0.14937
0.199854
0.102017
0.197415
0.0942494
0.156352
0.128409
0.11776
0.150263
0.149328
0.175202
0.174882
0.178838
0.185637
0.195867
0.234859
0.223215
0.181817
0.174651
0.16063
0.172049
0.144232
0.148165
0.127698
0.117061
0.0880085
0.12144
0.117873
0.135976
0.118446
0.203369
0.104726
0.153221
0.156834
0.155628
0.151776
0.142447
0.126462
0.0921508
0.0900102
0.126114
0.13192
0.143899
0.125123
0.141299
0.140017
0.133204
0.155228
0.151406
0.180026
0.0917237
0.164009
0.109763
0.0510804
0.0774659
0.100855
0.143173
0.142237
0.143817
0.145923
0.150969
0.146765
0.153476
0.121634
0.0863934
0.0841154
0.105343
0.0973582
0.114365
0.104111
0.0918945
0.0936575
0.0173242
0.126698
0.056873
0.106039
0.120568
0.146285
0.0985589
0.123766
0.122962
0.121863
0.112844
0.107933
0.0664602
0.0914763
0.108112
0.141706
0.153571
0.132377
0.156127
0.131757
0.115824
0.119117
0.116745
0.149317
0.0931235
0.0847352
0.103972
0.103338
0.00995259
0.0673173
0.108166
0.108515
0.108946
0.111502
0.104132
0.147316
0.113003
0.147173
0.0977384
0.0817262
0.080473
0.0564396
0.0784596
0.0809799
0.0749586
0.0757258
0.0466865
0.0741932
0.0679473
0.0424964
0.00707201
0.107786
0.0271315
0.0951922
0.0955029
0.0991863
0.0941686
0.139341
0.0826152
0.0875658
0.0582017
0.0866421
0.108635
0.096618
0.0929802
0.089929
0.0836187
0.0818144
0.082198
0.0869274
0.0737816
0.0766544
0.0662636
0.105498
0.0214397
0.0959657
0.0746351
0.0781211
0.0693852
0.0763063
0.0313937
0.0778513
0.0662808
0.0723689
0.0582252
0.0401012
0.0346202
0.0468683
0.0770226
0.0644736
0.0581293
0.0557523
0.0416105
0.0394099
0.0348074
0.00343276
0.0217541
0.00830948
-0.0138377
0.0633491
0.063416
0.0565117
0.0579214
0.0569061
0.0518659
0.0550878
0.0518456
0.067617
0.113944
0.0885225
0.0611032
0.0349312
0.053811
0.0503712
0.0559418
0.0519474
0.0574187
0.0461435
0.0710235
0.0434287
0.0449801
0.00596875
0.0419662
0.0440205
0.0416363
0.049488
0.0341942
0.0444066
0.03914
0.0338578
0.0276835
-0.0163888
0.0245649
0.0201005
0.0308376
0.0308206
0.0279524
0.0290373
0.0208749
0.0219666
0.0187996
0.00557476
0.0347271
-0.0134556
-0.000405095
0.0448775
0.0376488
0.0269532
0.0129203
0.0114599
0.0109511
-0.0104863
0.01164
0.0256135
0.031993
0.0365064
0.0294708
0.0238475
0.0343926
0.03622
0.0432041
0.0381602
0.0449755
0.0208649
0.0462031
-0.0105364
0.0410457
-0.0135405
-0.0135536
0.000725854
9.73688e-05
0.0531723
0.0161072
0.00995131
0.0266728
0.00608615
-0.00800641
-0.00949477
-0.0132304
-0.00773683
-0.0125533
-0.0116342
-0.0180138
-0.0177182
-0.0220889
-0.0223508
-0.010827
-0.0158522
-0.00268145
0.0168021
-0.0245783
0.0754726
0.0621488
0.0296782
-0.0596209
-0.0289119
0.0147286
0.0291567
-0.0184308
0.0431335
-0.0177964
0.0390088
0.000436
0.00936469
0.0391379
0.0603696
0.0667129
0.0680485
0.0653589
0.0393452
0.0339059
-0.00204248
-0.00733478
-0.00499871
-0.147255
-0.137406
-0.108631
-0.0503737
-0.0460065
-0.0738456
-0.0901958
-0.0200226
-0.115898
-0.00923057
-0.113538
-0.0333298
-0.0774731
-0.0843575
-0.121589
-0.11331
-0.11926
-0.112325
-0.0775405
-0.0865828
-0.0396676
-0.0329634
-0.0514442
430.756
36.534
691.362
761.593
512.009
366.888
614.429
996.77
913.171
720.639
1213.02
1222.52
1291.29
1245.99
1249.19
1228.74
1524.08
1427.07
1377.66
1330.34
2179.57
2075.43
2091.37
2116.18
2195.84
2216.04
2192.23
2045.72
1067.76
1067.65
997.173
793.241
180.857
213.161
178.071
129.288
36.5562
44.0897
46.0966
54.3953
46.8506
49.8645
35.0928
17.9102
6.03566
2.98739
2.21428
2.2482
0.583984
0.587183
0.608077
0.67897
0.426169
0.463194
0.503006
0.555697
0.415712
0.454643
0.492062
0.52315
0.409772
0.434618
0.446877
0.453976
0.350484
0.376971
0.385863
0.416834
0.382026
0.391355
0.392054
0.404579
0.34363
0.348918
0.363577
0.371727
0.36209
0.358007
0.363933
0.36647
0.287076
0.287699
0.319341
0.317702
0.334201
0.346465
0.336612
0.356774
0.23322
0.247501
0.263264
0.269948
0.264277
0.256823
0.258018
0.276665
0.208012
0.232552
0.221549
0.212108
0.220457
0.201991
0.216116
0.214398
0.159804
0.187731
0.177981
0.172512
0.171796
0.147384
0.16084
0.16513
0.154771
0.148176
0.129252
0.12295
0.0898175
0.120008
0.121468
0.107997
0.121955
0.0765088
0.103225
0.0851282
0.0807655
0.0963144
0.0895554
0.0610048
0.0442806
0.0535375
0.0212858
0.0362424
0.0374202
0.0387165
0.0537873
0.0465685
0.0602708
0.0257067
0.0347919
0.00188993
-0.0200523
-0.00592438
0.00589333
-0.00234719
0.0528119
0.0398497
0.0184016
0.00626921
-0.0260435
-0.0307655
-0.0203776
-0.00541984
0.0435876
0.00275663
0.0125955
-0.0298737
-0.00224076
-0.0481102
-0.00625571
-0.033115
0.0185904
0.0131176
-0.00285153
-0.0100108
-0.0424101
-0.0416942
-0.0506661
-0.0223565
712.431
1056.31
1532.65
2282.06
1609.33
1472.77
1945.52
2412.79
1616.88
1378.42
1449.55
1526.9
1859.58
2151.78
2341.8
2513.62
2793.47
3223.74
3153.43
1059.55
1404.8
1868.2
1585.72
1697.1
1985.69
1811.56
1672.61
1536.74
817.29
1254.56
1671.58
2264.85
2325.5
2564.66
2645.47
2900.71
3194.95
3087.86
1167.29
1273.61
1315.47
1480.09
846.917
1189.03
1113.77
1128.74
1296.4
1309.62
1703.38
1906.23
2024.87
1975.4
2098.78
2477
2835.35
3197.44
3019.66
1279.38
1339.08
1585.83
1049.23
1262.19
1364.63
1117.48
1367.96
1316.1
2158.4
2087.39
1467.19
1061.38
1170.04
1419.7
2105.53
2494.06
2772.97
2788.99
1590.33
2078.72
2064.65
1873.45
1986.4
2118.37
1888.85
2231.6
2157.58
1304.16
568.627
437.837
446.331
666.305
769.817
1703.37
1982.03
2467.86
2598.27
2272.2
2289.07
2126.79
1727.46
1781.47
2194.24
2213.29
2332.44
1636
687.371
230.582
173.728
173.57
172.756
199.299
942.769
1220.21
2196.18
2429.02
1638.82
1026.04
723.589
677.818
819.987
1282.37
1601.83
1671.72
953.985
279.953
73.4981
49.9319
50.7156
41.4965
49.5153
288.443
673.484
2045.63
2277.89
396.375
279.016
350.31
367.273
501.549
736.812
995.609
975.628
403.663
87.8806
23.5073
15.4922
16.2273
27.2522
29.649
90.974
534.016
1907.25
2166.24
96.8006
114.32
259.295
192.349
245.36
599.047
720.474
497.515
94.3728
16.0987
7.00073
6.37953
6.28505
12.2838
18.2121
64.0394
438.202
1817.37
2094.42
72.5406
73.4839
173.872
162.885
79.6643
172.65
373.973
322.587
124.533
14.6917
4.49462
3.83656
4.29229
8.87492
16.0868
56.359
276.921
1484.15
2013.94
10.8675
6.42565
25.2096
29.284
11.1201
9.14747
59.5546
75.0212
40.0794
8.63192
3.39732
2.81812
3.23115
6.15471
16.8775
51.681
179.953
1017.58
1969.47
1.44144
1.38626
1.17545
3.07644
1.51561
2.67428
12.0148
13.3001
6.33078
2.64365
2.42949
2.43242
2.56596
3.30687
14.3815
44.6644
145.186
712.237
1963.19
0.699128
0.6719
0.731529
0.50059
0.797756
0.708115
1.51248
0.986784
0.97115
1.14487
1.91481
2.99809
4.23241
4.42435
10.0117
32.456
126.112
540.519
1850.59
0.605789
0.694099
0.572156
0.610418
0.465799
0.522714
0.501484
0.651803
0.841083
1.24772
1.95614
3.56589
5.86445
5.21491
8.25131
25.1862
106.191
410.724
1742.22
0.559792
0.593182
0.57008
0.49306
0.564493
0.504023
0.508549
0.560702
0.948445
1.31613
2.02898
3.56844
6.41576
5.51297
8.35384
20.6667
84.6064
260.381
1592.75
0.500156
0.520629
0.496737
0.51856
0.484949
0.522235
0.493718
0.584583
0.663478
0.98618
1.69335
3.29197
7.62387
6.59486
6.81373
16.6455
60.8788
133.374
1370.34
0.426305
0.45153
0.480757
0.486279
0.510207
0.467837
0.545065
0.55377
0.627116
0.813784
1.12997
1.77877
6.75052
7.63787
6.89129
12.5666
43.6919
84.8251
1190.38
0.427849
0.454808
0.452671
0.493267
0.477865
0.515718
0.511447
0.539802
0.570768
0.642809
0.758321
0.862371
2.64773
8.22454
9.23916
11.9352
29.8459
55.1587
1052.96
0.37748
0.43419
0.433861
0.463452
0.46371
0.440825
0.529596
0.527197
0.579304
0.596729
0.6938
0.673176
1.6632
6.58884
8.31353
9.48549
21.2708
30.5284
872.868
0.399711
0.37371
0.408808
0.433642
0.46698
0.475012
0.509215
0.517479
0.528481
0.619098
0.64851
0.714375
0.864151
3.24328
8.36835
9.30473
16.3965
16.1043
697.393
0.310217
0.365083
0.383837
0.403196
0.427686
0.42988
0.486766
0.480804
0.554441
0.534393
0.671176
0.609969
0.858424
1.45794
6.05739
8.82448
12.2546
10.8122
553.64
0.341828
0.326058
0.372536
0.391996
0.415415
0.420225
0.445182
0.481816
0.523567
0.525623
0.647191
0.69709
0.785742
0.974996
3.20318
8.52819
10.5091
8.26767
459.712
0.292969
0.341098
0.315995
0.338206
0.376205
0.382556
0.405334
0.440043
0.483055
0.476365
0.59274
0.659167
0.747428
0.968981
2.07211
8.13425
9.73418
6.8063
388.283
0.266215
0.27468
0.294011
0.335247
0.309665
0.360729
0.351259
0.389143
0.415991
0.431513
0.517855
0.602847
0.836253
1.05994
1.79602
6.76038
8.98664
6.00498
336.26
0.219523
0.231493
0.244534
0.257168
0.278497
0.288632
0.315309
0.303483
0.359653
0.354472
0.47362
0.593699
0.658528
0.893548
1.15615
1.79409
7.45181
4.9328
289.113
0.220652
0.173924
0.217215
0.221225
0.220275
0.229411
0.268556
0.226623
0.26637
0.274775
0.402541
0.495422
0.660522
0.641839
1.35295
1.05701
6.78391
4.02521
253.131
0.175421
0.179715
0.141877
0.160265
0.162813
0.183341
0.14051
0.204439
0.202327
0.192613
0.341204
0.378463
0.626954
0.726318
0.638954
1.39807
5.57934
3.51197
225.108
0.157373
0.137281
0.128289
0.139636
0.0913539
0.107957
0.110798
0.0673233
0.0987456
0.255349
0.0704206
0.236151
0.632064
0.640774
1.2205
0.954207
3.7369
2.66084
194.266
0.157917
0.127023
0.0996615
0.0716843
0.0545265
0.051515
-0.00913977
0.0376455
0.0115665
-0.12487
0.127319
-0.0627023
0.299457
1.87985
0.883409
0.822364
2.30061
2.07504
171.82
0.0743886
0.0738092
0.0586218
0.0271468
0.00226165
-0.0354818
-0.0377322
-0.0836942
-0.219216
-0.160925
-0.381501
-0.596237
-0.192125
1.26142
1.62956
0.138899
1.6092
1.97739
154.668
0.10611
0.0993659
0.0595824
-0.0316591
0.00422637
-0.0259225
-0.0651473
-0.100461
-0.260418
-0.390168
-0.457391
-0.644393
-0.49792
0.502174
1.1445
-0.0919628
0.504871
1.57139
136.243
0.0211867
0.00247208
0.0133827
-0.0465431
-0.05049
-0.11915
-0.258412
-0.152684
-0.343665
-0.526115
-0.750153
-1.27072
-0.926703
-0.646674
-0.341447
0.100742
0.73055
-0.426751
124.47
0.0764649
0.00939868
0.0276547
0.00466364
-0.0534425
-0.148994
-0.151184
-0.430627
-0.321406
-0.639502
-0.755197
-1.00562
0.459071
0.49417
0.453751
-0.184049
0.944542
4.70368
115.307
0.0266101
-0.0367973
0.0112291
-0.148783
-0.107328
-0.139568
-0.303137
-0.185049
-0.593079
-0.500163
-0.889646
-0.841402
1.45099
2.85178
3.56918
-0.258216
1.72306
8.09866
107.857
0.0189778
0.00435317
-0.0443546
-0.0236694
-0.117238
-0.163079
-0.213484
-0.3653
-0.508574
-0.617251
-0.519965
-0.880966
0.559879
4.71751
3.70941
-0.723141
-1.28581
30.6041
116.228
0.00684423
-0.0386129
-0.0429218
-0.100974
-0.11987
-0.124043
-0.270774
-0.310452
-0.37162
-0.565821
-0.746885
-0.855785
-0.251007
3.45276
6.83656
-0.647748
-0.447463
30.6846
63.0006
0.00038251
-0.0246293
-0.0557387
-0.0836185
-0.116774
-0.291102
-0.201562
-0.3316
-0.350305
-0.549238
-0.461594
-0.734836
-0.270029
2.55156
8.37732
4.59244
1.24022
32.8997
68.1094
0.0228571
-0.0433125
-0.050101
-0.08912
-0.0824086
-0.131671
-0.196137
-0.285834
-0.311707
-0.477142
-0.609191
-0.7801
-0.615126
0.852779
8.2583
10.2579
7.98907
34.0662
68.1169
-0.0281864
-0.0154829
-0.067398
-0.0564572
-0.0705052
-0.154176
-0.170894
-0.224217
-0.245217
-0.415672
-0.398447
-0.610506
-0.596723
0.105488
5.275
12.4277
16.5509
33.9788
58.9613
-0.0283972
-0.0647019
-0.0674241
-0.0661149
-0.123404
-0.120182
-0.143464
-0.181653
-0.212611
-0.289591
-0.383943
-0.354222
-0.492231
-0.397712
1.78498
9.96777
16.2387
29.9603
48.3074
-0.0159699
0.0342491
-0.0399023
0.00433173
-0.0580061
-0.0561629
-0.061704
-0.178837
-0.111484
-0.119645
-0.234544
-0.235895
-0.368911
-0.325707
0.218627
2.90393
12.9514
28.0123
40.509
-0.0330943
-0.0694107
-0.0161911
-0.100271
-0.0408648
-0.0937363
-0.1151
-0.0353119
-0.159091
-0.176453
-0.08913
-0.12846
-0.0776159
-0.195811
-0.46793
-0.589151
2.6957
4.86714
13.3821
)
;

boundaryField
{
    leftWall
    {
        type            zeroGradient;
    }
    rightWall
    {
        type            zeroGradient;
    }
    lowerWall
    {
        type            zeroGradient;
    }
    atmosphere
    {
        type            totalPressure;
        rho             rho;
        psi             none;
        gamma           1;
        p0              uniform 0;
        value           nonuniform List<scalar> 
46
(
-0.0570611
-0.0597037
-0.0610082
-0.0753637
-0.0536716
-0.0491771
-0.0452384
-0.0353056
-0.0502085
-0.0287831
-0.0493657
-0.0320536
-0.0464156
-0.0412312
-0.0459498
-0.0405731
-0.0407478
-0.0366516
-0.033333
-0.0341559
-0.0272425
-0.0335127
-0.0248164
-0.0233432
-0.0213504
-0.0273365
-0.0179463
-0.0240734
-0.0129021
-0.0157871
-0.0248614
-0.0267637
-0.0257706
-0.0326594
-0.0369946
-0.0404284
-0.0322416
-0.0087293
-0.00189592
-0.012609
0
0
0
0
0
0
)
;
    }
    defaultFaces
    {
        type            empty;
    }
}


// ************************************************************************* //
