/*--------------------------------*- C++ -*----------------------------------*\
| =========                 |                                                 |
| \\      /  F ield         | foam-extend: Open Source CFD                    |
|  \\    /   O peration     | Version:     4.1                                |
|   \\  /    A nd           | Web:         http://www.foam-extend.org         |
|    \\/     M anipulation  |                                                 |
\*---------------------------------------------------------------------------*/
FoamFile
{
    version     2.0;
    format      ascii;
    class       surfaceScalarField;
    location    "0.45";
    object      phi;
}
// * * * * * * * * * * * * * * * * * * * * * * * * * * * * * * * * * * * * * //

dimensions      [0 3 -1 0 0 0 0];

internalField   nonuniform List<scalar> 
4432
(
1.65446e-06
-1.65446e-06
4.8503e-06
-3.19584e-06
7.99204e-06
-3.14174e-06
1.20779e-05
-4.08583e-06
1.88209e-05
-6.74299e-06
2.66795e-05
-7.85863e-06
2.9431e-05
-2.75155e-06
4.10335e-05
-1.16024e-05
4.71182e-05
-6.08472e-06
7.75607e-05
-3.04425e-05
7.70586e-05
5.02078e-07
8.06974e-05
-3.63883e-06
8.02425e-05
4.54959e-07
7.96681e-05
5.74368e-07
4.90745e-05
3.05936e-05
5.13852e-05
-2.3107e-06
4.59275e-05
5.45762e-06
3.50606e-05
1.08669e-05
2.50144e-05
1.00462e-05
2.78861e-05
-2.87169e-06
2.19358e-05
5.95034e-06
-5.92727e-07
2.25285e-05
-5.92727e-07
1.84933e-06
-3.50379e-06
5.05438e-06
-6.40088e-06
8.05587e-06
-6.14322e-06
1.21136e-05
-8.14359e-06
1.89123e-05
-1.35416e-05
2.62822e-05
-1.52286e-05
2.93035e-05
-5.77286e-06
4.20637e-05
-2.43627e-05
4.78316e-05
-1.18526e-05
7.47985e-05
-5.74094e-05
7.57655e-05
-4.6489e-07
7.92387e-05
-7.11201e-06
8.20382e-05
-2.34452e-06
8.03811e-05
2.2314e-06
8.20401e-05
2.89347e-05
4.80298e-05
3.16996e-05
4.56687e-05
7.81873e-06
6.86668e-05
-1.21311e-05
5.8741e-05
1.9972e-05
5.16576e-05
4.21171e-06
4.61235e-05
1.14844e-05
4.26205e-05
2.60315e-05
4.20278e-05
1.94005e-06
-5.44384e-06
5.24772e-06
-9.70856e-06
8.07557e-06
-8.97107e-06
1.20236e-05
-1.20917e-05
1.83792e-05
-1.98972e-05
2.65204e-05
-2.33697e-05
3.14113e-05
-1.06638e-05
4.11294e-05
-3.40807e-05
4.43465e-05
-1.50698e-05
4.01917e-05
-5.32546e-05
6.82431e-05
-2.85162e-05
6.88992e-05
-7.76811e-06
6.7019e-05
-4.64371e-07
3.85459e-05
3.07045e-05
4.41969e-05
2.32837e-05
4.83954e-05
2.7501e-05
4.41221e-05
1.20921e-05
3.59473e-05
-3.9563e-06
5.65973e-05
-6.78064e-07
4.22589e-05
1.85501e-05
3.42263e-05
1.9517e-05
2.02643e-05
3.99935e-05
6.2292e-05
2.58266e-06
-8.0265e-06
5.82208e-06
-1.2948e-05
8.03024e-06
-1.11792e-05
1.23946e-05
-1.6456e-05
2.0517e-05
-2.80197e-05
2.86409e-05
-3.14936e-05
3.28396e-05
-1.48625e-05
3.96065e-05
-4.08476e-05
3.97372e-05
-1.52004e-05
3.7684e-05
-5.12014e-05
3.3767e-05
-2.45992e-05
6.48259e-05
-3.8827e-05
3.91989e-05
2.51626e-05
7.46287e-05
-4.72533e-06
7.55378e-05
2.23746e-05
7.9012e-05
2.40268e-05
7.79409e-05
1.31632e-05
6.71648e-05
6.81974e-06
6.27516e-05
3.73518e-06
5.33313e-05
2.79704e-05
4.34676e-05
2.93807e-05
2.24003e-05
6.10608e-05
8.46924e-05
2.53058e-06
-1.05571e-05
5.83669e-06
-1.62541e-05
8.20224e-06
-1.35448e-05
1.3881e-05
-2.21347e-05
2.29057e-05
-3.70444e-05
2.84242e-05
-3.70121e-05
3.02785e-05
-1.67168e-05
3.74096e-05
-4.79787e-05
3.69978e-05
-1.47886e-05
3.71025e-05
-5.13061e-05
6.78374e-05
-5.53341e-05
3.9635e-05
-1.06245e-05
7.04766e-05
-5.679e-06
7.59406e-05
-1.01892e-05
7.17038e-05
2.66113e-05
6.88046e-05
2.6926e-05
6.67998e-05
1.5168e-05
6.28278e-05
1.07918e-05
6.24459e-05
4.11709e-06
5.35585e-05
3.68578e-05
4.36536e-05
3.92856e-05
2.28927e-05
8.18217e-05
0.000107585
3.80413e-06
-1.43612e-05
6.61217e-06
-1.90621e-05
9.25346e-06
-1.61861e-05
1.62739e-05
-2.91552e-05
2.40959e-05
-4.48664e-05
2.77279e-05
-4.06441e-05
5.24758e-05
-4.14647e-05
3.77585e-05
-3.32614e-05
7.01691e-05
-4.71992e-05
7.11437e-05
-5.22807e-05
7.19381e-05
-5.61286e-05
7.14101e-05
-1.00965e-05
7.0445e-05
-4.71387e-06
4.53442e-05
1.49115e-05
8.11537e-05
-9.19821e-06
6.91066e-05
3.89732e-05
7.09684e-05
1.33062e-05
7.02743e-05
1.14858e-05
7.05328e-05
3.85865e-06
5.87593e-05
4.86312e-05
4.69445e-05
5.11004e-05
2.26992e-05
0.000106067
0.000130284
3.41598e-06
-1.77772e-05
6.62139e-06
-2.22675e-05
1.06188e-05
-2.01835e-05
1.82545e-05
-3.67909e-05
2.50445e-05
-5.16564e-05
2.83643e-05
-4.3964e-05
3.20068e-05
-4.51072e-05
3.98235e-05
-4.1078e-05
6.63119e-05
-7.36876e-05
7.15435e-05
-5.75124e-05
4.12997e-05
-2.58848e-05
7.3845e-05
-4.26418e-05
4.06945e-05
2.84366e-05
4.7657e-05
7.94902e-06
4.64348e-05
-7.97601e-06
7.01384e-05
1.52696e-05
6.54376e-05
1.8007e-05
6.94018e-05
7.52164e-06
7.87962e-05
-5.53581e-06
6.81881e-05
5.92393e-05
5.22291e-05
6.70594e-05
4.49109e-05
0.000113385
0.000175195
5.97816e-06
-2.37553e-05
7.44746e-06
-2.37368e-05
1.23469e-05
-2.50829e-05
2.01596e-05
-4.46036e-05
2.72456e-05
-5.87424e-05
3.18985e-05
-4.86169e-05
5.9583e-05
-7.27917e-05
7.1489e-05
-5.29841e-05
7.35218e-05
-7.57204e-05
7.66671e-05
-6.06577e-05
8.23228e-05
-3.15404e-05
4.45084e-05
-4.82743e-06
6.74875e-05
5.4575e-06
7.26718e-05
2.76472e-06
4.01386e-05
2.45571e-05
3.04424e-05
2.49659e-05
4.97297e-05
-1.28018e-06
5.54678e-05
1.78352e-06
4.29661e-05
6.96592e-06
7.76583e-05
2.45471e-05
6.19069e-05
8.28108e-05
4.39567e-05
0.000131335
0.000219152
-0.000112242
0.000112242
-0.00013632
2.40775e-05
-0.000143628
7.30787e-06
-0.000147411
3.78368e-06
-0.000153721
6.30945e-06
-0.000158161
4.4402e-06
-0.000152466
-5.69468e-06
-9.16583e-05
-6.08079e-05
-9.71715e-05
5.51327e-06
-0.000141543
4.43719e-05
-9.87577e-05
-4.27857e-05
-0.000173223
7.44653e-05
-0.000146967
-2.62557e-05
-9.75028e-05
-4.94645e-05
-4.44539e-05
-5.30489e-05
-1.41488e-05
-3.03051e-05
-1.5609e-05
1.46028e-06
-3.58268e-05
2.02178e-05
-3.58268e-05
-2.8731e-05
0.000140973
-6.43305e-05
5.96771e-05
-8.19484e-05
2.49257e-05
-8.67244e-05
8.55974e-06
-8.19727e-05
1.5577e-06
-7.20564e-05
-5.47605e-06
-4.51197e-05
-3.26314e-05
-7.05728e-05
-3.53548e-05
-8.48188e-05
1.97593e-05
-0.000131168
9.07212e-05
-0.00014979
-2.4164e-05
-7.58457e-05
5.21268e-07
-8.07474e-05
-2.1354e-05
-4.26451e-05
-8.75669e-05
-1.54487e-05
-8.02452e-05
3.73188e-06
-4.94857e-05
-3.5068e-06
8.69896e-06
-8.58569e-06
2.52967e-05
-4.44125e-05
-8.14761e-06
0.000149121
-4.96078e-06
5.64902e-05
-1.09827e-05
3.09476e-05
-2.1566e-05
1.9143e-05
-3.94565e-05
1.94482e-05
-3.15709e-05
-1.33616e-05
-5.31951e-05
-1.10072e-05
-9.4315e-05
5.76507e-06
-0.000100884
2.63287e-05
-6.22515e-05
5.20883e-05
-6.29326e-05
-2.3483e-05
-4.32385e-05
-1.91728e-05
-1.55751e-05
-4.90174e-05
1.67665e-05
-0.000119909
2.01197e-05
-8.35984e-05
1.99731e-05
-4.93392e-05
1.54495e-05
1.32226e-05
1.05121e-05
3.0234e-05
-3.39004e-05
1.92205e-05
0.0001299
4.5034e-05
3.06768e-05
8.61931e-05
-1.02116e-05
3.64833e-05
6.88529e-05
1.87496e-05
3.7182e-05
1.06042e-05
-5.21625e-06
-1.67109e-07
-2.35877e-07
-2.46245e-05
3.02225e-05
-3.55621e-05
3.72663e-05
-4.07548e-06
2.06017e-05
1.16208e-06
-2.87206e-05
2.40405e-06
-2.04148e-05
5.4589e-05
-0.000101202
4.34763e-05
-0.000108796
4.76919e-05
-8.7814e-05
3.81e-05
-3.97473e-05
2.89106e-05
2.24119e-05
2.13675e-05
3.77771e-05
-1.25328e-05
2.65521e-05
0.000103348
4.87349e-05
8.49389e-06
4.58337e-05
-7.31025e-06
2.09963e-05
9.36902e-05
8.92273e-06
4.92555e-05
-1.47852e-05
1.84916e-05
-1.61428e-05
1.12174e-06
4.09702e-06
9.9827e-06
3.23452e-05
9.01811e-06
4.32835e-05
9.66343e-06
3.04384e-05
-1.58755e-05
4.35451e-05
-3.35214e-05
5.82317e-05
-0.000115889
6.15398e-05
-0.000112104
6.27384e-05
-8.90126e-05
5.50889e-05
-3.20978e-05
4.28184e-05
3.46824e-05
2.59555e-05
5.464e-05
1.34227e-05
2.69987e-05
7.63494e-05
3.57815e-05
-2.88912e-07
3.03562e-05
-1.88496e-06
2.36201e-05
0.000100426
3.5198e-06
6.93559e-05
-8.04949e-08
2.20919e-05
2.19949e-05
-2.09537e-05
5.34862e-05
-2.15085e-05
7.82799e-05
-1.57756e-05
4.69089e-05
4.10345e-05
5.48408e-05
-2.38074e-05
6.51976e-05
-4.38783e-05
7.28383e-05
-0.00012353
7.10327e-05
-0.000110298
6.93034e-05
-8.72833e-05
6.36991e-05
-2.64935e-05
5.16578e-05
4.67237e-05
3.259e-05
7.37078e-05
4.60126e-05
3.98651e-05
3.64842e-05
6.01697e-05
-2.05935e-05
5.70377e-05
1.247e-06
9.18823e-06
0.000148276
-2.74039e-06
8.12845e-05
2.14812e-05
-2.12962e-06
1.06123e-05
-1.00849e-05
-4.87259e-05
3.78297e-05
2.38259e-05
-8.83274e-05
4.97395e-05
1.51208e-05
7.20966e-05
-4.61645e-05
8.45973e-05
-5.6379e-05
8.7701e-05
-0.000126633
8.30614e-05
-0.000105659
7.67287e-05
-8.09506e-05
7.07109e-05
-2.04757e-05
5.61692e-05
6.12654e-05
3.53846e-05
9.44925e-05
8.13972e-05
1.4615e-05
2.18693e-05
4.89086e-05
-5.48871e-05
5.03545e-05
-1.98882e-07
1.0803e-05
0.000187827
8.33616e-06
8.37513e-05
3.81965e-05
-3.199e-05
4.74706e-06
2.33646e-05
-1.49892e-05
5.75659e-05
3.46462e-05
-0.000137963
6.65171e-05
-1.67501e-05
9.49162e-05
-7.45636e-05
0.000100435
-6.18976e-05
9.73982e-05
-0.000123597
9.02268e-05
-9.84871e-05
7.90374e-05
-6.97613e-05
7.28063e-05
-1.42446e-05
6.19033e-05
7.21684e-05
3.73239e-05
0.000119072
0.000118721
1.67313e-05
-4.04867e-05
3.46034e-05
-4.16089e-05
5.56601e-05
-4.61396e-05
8.78039e-05
-7.67474e-05
0.000111863
-8.28016e-05
0.000132817
-6.95705e-05
0.000152972
-9.29468e-05
0.000181535
-8.15473e-05
0.000188792
-8.2977e-05
0.000191214
-6.308e-05
0.000175909
-1.62353e-05
0.000148636
2.24454e-05
0.000144953
9.14033e-06
0.000113064
3.46545e-05
0.000126036
1.15847e-05
0.000172163
-2.11614e-05
0.000161924
8.95886e-06
0.000160271
3.43682e-06
0.000156397
1.08395e-05
0.000142921
3.80235e-05
0.000145603
8.01287e-05
0.000137624
0.000139314
0.000143413
0.000213363
6.46588e-06
-4.69525e-05
2.23208e-05
-5.74638e-05
4.17303e-05
-6.55491e-05
6.70244e-05
-0.000102041
6.40746e-05
-7.98519e-05
8.25656e-05
-8.80616e-05
9.40317e-05
-0.000104413
0.000105338
-9.28539e-05
0.000106283
-8.39216e-05
0.000100826
-5.76235e-05
8.84059e-05
-3.81487e-06
0.000126389
-1.55373e-05
0.0001382
-2.67138e-06
0.000159758
1.30967e-05
0.000166839
4.50416e-06
0.00015104
-5.36246e-06
0.000147935
1.20631e-05
0.000128788
2.25845e-05
0.000113004
2.66235e-05
0.000129
2.20274e-05
9.75127e-05
0.000111616
0.000127026
0.000109801
0.000118858
0.000151581
-1.85943e-05
-2.83582e-05
-1.82459e-05
-5.78123e-05
4.23668e-05
-0.000126162
5.4289e-05
-0.000113964
5.45607e-05
-8.01235e-05
4.24447e-05
-7.59456e-05
5.83269e-05
-0.000120295
6.84868e-05
-0.000103014
8.59068e-05
-0.000101342
9.93834e-05
-7.11001e-05
0.000144042
-4.84739e-05
0.000125116
3.38925e-06
0.00014065
-1.82058e-05
0.000161998
-8.2508e-06
0.000167492
-9.90032e-07
0.000141335
2.07941e-05
0.000134529
1.88695e-05
0.000131142
2.59712e-05
0.000134434
2.33315e-05
9.13528e-05
6.51089e-05
0.000121814
8.11543e-05
0.000163534
6.80814e-05
0.000121497
0.000160895
-3.27749e-05
4.41667e-06
8.48914e-06
-9.90763e-05
9.04574e-06
-0.000126718
5.10474e-05
-0.000155965
1.88893e-05
-4.79654e-05
1.35899e-05
-7.06462e-05
2.75179e-05
-0.000134223
1.09579e-05
-8.64538e-05
1.50614e-05
-0.000105445
4.62354e-05
-0.000102274
8.72301e-05
-8.94686e-05
0.000121838
-3.12183e-05
0.000106104
-2.47244e-06
0.000117393
-1.95393e-05
0.000108379
8.02351e-06
0.000119477
9.69621e-06
9.63508e-05
4.19959e-05
0.000104823
1.74994e-05
7.5809e-05
5.23451e-05
0.000109544
3.13742e-05
0.000133785
5.69128e-05
0.000144415
5.74516e-05
3.23385e-05
0.000233573
-2.71663e-05
3.1583e-05
-1.19106e-05
-0.000114332
1.80683e-06
-0.000140436
-6.65145e-06
-0.000147507
1.36654e-05
-6.82823e-05
1.71396e-05
-7.41204e-05
-1.42703e-05
-0.000102813
-1.59937e-05
-8.47303e-05
-1.77947e-05
-0.000103644
3.77828e-06
-0.000123847
6.18423e-05
-0.000147533
0.000110181
-7.95566e-05
0.000189185
-8.14765e-05
0.00019765
-2.80042e-05
0.000181446
2.42274e-05
0.000129114
6.20277e-05
0.000117999
5.31107e-05
0.000137791
-2.29185e-06
0.000167029
2.31064e-05
0.000191069
7.33497e-06
0.000210493
3.74881e-05
0.000201381
6.65636e-05
5.62335e-05
0.000177486
5.96085e-06
2.56222e-05
-2.83647e-06
-0.000105535
-3.57222e-06
-0.0001397
-9.91839e-07
-0.000150087
9.41802e-08
-6.93683e-05
2.41743e-06
-7.64436e-05
-6.39347e-06
-9.40023e-05
-2.40846e-05
-6.70392e-05
-3.65854e-05
-9.11434e-05
-3.90151e-06
-0.000156531
6.48195e-05
-0.000216254
0.000106273
-0.00012101
0.000110266
-8.54693e-05
0.000114056
-3.17941e-05
7.29234e-05
6.53596e-05
3.39729e-05
0.000100978
6.83102e-05
1.87734e-05
0.000118841
-5.28223e-05
0.00021543
-7.34828e-05
0.000210225
1.25402e-05
0.000210991
3.67221e-05
0.000217113
6.04408e-05
6.72721e-05
0.000206075
5.984e-05
-3.42179e-05
5.51641e-05
-0.000100859
4.21668e-05
-0.000126703
7.98367e-06
-0.000115904
-1.40314e-05
-4.73533e-05
-3.44363e-05
-5.60387e-05
-4.90777e-05
-7.93608e-05
-3.59106e-05
-8.02063e-05
-2.04888e-05
-0.000106565
1.53637e-05
-0.000192383
8.01709e-05
-0.000281061
7.59622e-05
-0.000116801
5.12799e-05
-6.0787e-05
3.16127e-05
-1.21269e-05
3.79769e-05
5.89954e-05
7.39155e-05
6.50396e-05
5.08903e-05
4.17986e-05
5.69049e-05
-5.88368e-05
8.0239e-05
-9.68168e-05
0.000139277
-4.6498e-05
0.000192
-1.60009e-05
0.000214751
3.76903e-05
8.09419e-05
0.000201081
9.09896e-05
-0.000125207
8.58986e-05
-9.57678e-05
4.90439e-05
-8.98481e-05
-1.00323e-05
-5.68282e-05
-5.23984e-05
-4.98709e-06
-1.28782e-05
-9.5559e-05
-1.79371e-05
-7.43019e-05
-3.41636e-05
-6.39799e-05
2.10732e-06
-0.000142836
8.88813e-06
-0.000199164
3.05087e-05
-0.000302681
2.33449e-05
-0.000109638
2.07155e-05
-5.81576e-05
3.1022e-05
-2.24333e-05
-6.09671e-06
9.61141e-05
2.31071e-06
5.66322e-05
2.97947e-05
1.43146e-05
1.65148e-05
-4.5557e-05
5.95515e-06
-8.62571e-05
3.3127e-05
-7.36699e-05
6.48352e-05
-4.77091e-05
9.91867e-05
3.33873e-06
2.28383e-05
0.00015729
-1.09948e-06
-0.000124108
9.25683e-07
-9.7793e-05
-4.4781e-07
-8.84746e-05
-4.96513e-06
-5.23109e-05
-8.13059e-06
-1.82162e-06
-3.8464e-05
-6.52256e-05
-3.4045e-05
-7.87208e-05
-5.56856e-06
-9.24564e-05
6.94773e-06
-0.000155352
-1.72598e-06
-0.00019049
-2.27533e-05
-0.000281654
1.05144e-05
-0.000142905
1.64075e-05
-6.40507e-05
1.53664e-05
-2.13922e-05
3.5938e-05
7.55425e-05
1.90112e-05
7.3559e-05
4.79326e-05
-1.46068e-05
1.77919e-05
-1.54163e-05
1.95359e-05
-8.80011e-05
1.72702e-05
-7.14042e-05
3.34177e-05
-6.38565e-05
8.25639e-05
-4.58075e-05
6.16854e-06
9.92336e-05
1.3954e-05
-0.000138062
2.24469e-06
-8.60837e-05
7.53235e-06
-9.37623e-05
1.70257e-05
-6.18042e-05
1.77614e-05
-2.55739e-06
7.42821e-06
-5.48924e-05
5.19276e-06
-7.64854e-05
7.54698e-06
-9.48106e-05
-5.79518e-06
-0.00014201
-2.47813e-07
-0.000196038
-2.25015e-05
-0.0002594
-1.49298e-05
-0.000150477
2.62226e-06
-8.16027e-05
4.96153e-06
-2.37315e-05
-2.00844e-05
0.000100588
-6.25422e-06
5.97288e-05
3.75209e-06
-2.46131e-05
1.21842e-05
-2.38484e-05
-4.7912e-06
-7.10258e-05
-9.49021e-06
-6.67052e-05
-1.28836e-05
-6.04631e-05
-1.54639e-05
-4.32272e-05
1.13648e-05
-2.06602e-05
-2.06619e-06
-0.000135996
-4.81174e-06
-8.33381e-05
-5.46795e-06
-9.31061e-05
4.12651e-06
-7.13986e-05
3.09751e-05
-2.9406e-05
1.45145e-05
-3.84318e-05
2.05682e-06
-6.40277e-05
-9.98432e-07
-9.17554e-05
-1.58293e-05
-0.000127179
-1.41801e-06
-0.000210449
-2.32318e-05
-0.000237587
-4.96457e-06
-0.000168744
-4.50358e-05
-4.15315e-05
-6.98834e-05
1.11605e-06
-3.55525e-05
6.62575e-05
-8.29302e-06
3.24694e-05
-5.5009e-06
-2.74052e-05
6.35489e-06
-3.57042e-05
-5.84519e-06
-5.88257e-05
-1.50346e-05
-5.75158e-05
-4.0497e-05
-3.50007e-05
-3.44165e-05
-4.93076e-05
-2.09146e-05
-2.13714e-06
-9.03581e-06
-0.00012696
-1.18385e-05
-8.05354e-05
-7.89114e-06
-9.70534e-05
-8.76848e-06
-7.05213e-05
1.1733e-05
-4.99074e-05
1.77756e-05
-4.44744e-05
5.68312e-06
-5.19352e-05
-2.26785e-06
-8.38044e-05
-1.49514e-05
-0.000114496
-2.8135e-06
-0.000222587
-3.09848e-05
-0.000209415
-1.34721e-05
-0.000186257
-4.36482e-05
-1.13554e-05
-6.43989e-05
2.18667e-05
-2.38815e-05
2.57401e-05
2.69963e-06
5.88827e-06
1.6652e-06
-2.63708e-05
-9.87469e-06
-2.41644e-05
-1.56594e-05
-5.3041e-05
-4.44937e-05
-2.86815e-05
-4.10382e-05
-3.84563e-05
-5.44507e-05
-3.58951e-05
-4.2399e-05
-3.29662e-05
-2.9754e-05
-9.72059e-05
8.63082e-07
-0.000111153
-1.44169e-05
-8.17735e-05
1.34399e-05
-9.83781e-05
1.95683e-05
-5.60357e-05
2.38246e-05
-4.87307e-05
2.12972e-05
-4.94079e-05
1.02017e-05
-7.27088e-05
-8.22519e-06
-9.6069e-05
5.29168e-07
-0.000231341
-1.72934e-05
-0.000191593
-9.74604e-05
-0.00010609
-5.29518e-05
-5.5864e-05
-3.16405e-05
5.55469e-07
-7.78026e-07
-5.1224e-06
5.96356e-06
-8.53316e-07
-2.5258e-07
-2.01546e-05
-3.09288e-06
-2.13241e-05
-2.71296e-05
-2.90042e-05
-2.85689e-05
-2.72422e-05
-4.03341e-05
-2.66911e-05
-2.42546e-05
-5.19746e-05
-3.18444e-05
-3.48092e-05
9.73608e-06
-0.000106942
-6.57829e-06
-9.48382e-05
-1.13134e-06
-8.72204e-05
4.40421e-06
-0.000103914
3.49514e-05
-8.65829e-05
3.04969e-05
-4.42762e-05
3.73571e-05
-5.62681e-05
5.09272e-05
-8.62789e-05
1.21857e-06
-4.63604e-05
-1.84324e-06
-0.00022828
-1.59377e-05
-0.000177498
-3.60154e-05
-8.60125e-05
1.97945e-05
-0.000111674
2.72558e-05
-6.90586e-06
1.41302e-05
8.00325e-06
1.15589e-05
1.71799e-06
-2.18084e-06
-6.41492e-06
-1.07614e-05
-1.27435e-05
-1.84334e-05
-2.13322e-05
-2.10643e-05
-2.46113e-05
-9.35348e-06
-3.84019e-05
-3.55566e-05
-2.57714e-05
-3.29534e-05
-3.44477e-05
-1.43912e-05
-9.25508e-05
-1.44826e-05
-9.47468e-05
-7.71667e-06
-9.39863e-05
1.97315e-06
-0.000113604
2.26028e-05
-0.000107213
3.77531e-05
-5.94265e-05
5.56706e-05
-7.41856e-05
9.07505e-05
-0.000121359
9.57988e-05
-5.14087e-05
9.05765e-06
-0.000141538
-1.6659e-06
-0.000166775
-2.47862e-05
-6.28921e-05
3.65592e-06
-0.000140116
2.47163e-05
-2.79662e-05
4.49518e-06
2.82243e-05
7.59093e-07
5.45407e-06
-4.48843e-06
-1.1674e-06
-2.2228e-06
-1.50092e-05
-3.3552e-06
-2.01998e-05
-8.57691e-06
-1.93896e-05
-1.61706e-05
-3.08082e-05
-1.97734e-05
-2.21686e-05
-1.81929e-05
-3.45338e-05
-8.20853e-06
-8.43423e-05
-1.29396e-05
-9.00157e-05
-5.69423e-06
-0.000101232
-5.24759e-06
-0.00011405
1.54909e-06
-0.000114009
1.60698e-05
-7.39472e-05
1.69303e-05
-7.50462e-05
4.26607e-05
-0.000147089
4.25854e-05
-5.13334e-05
5.70864e-06
-0.000104662
-1.0882e-05
-0.000150184
7.57513e-06
-8.13492e-05
-7.17277e-06
-0.000125368
-6.57749e-06
-2.85615e-05
-8.71911e-06
3.0366e-05
-7.29974e-06
4.0347e-06
-6.26531e-06
-2.20183e-06
-1.36865e-05
-7.588e-06
-1.20913e-05
-2.1795e-05
-1.95884e-05
-1.18925e-05
-3.03001e-05
-2.00965e-05
-1.53493e-05
-3.71195e-05
-1.89093e-05
-1.4633e-05
-2.72101e-05
-5.71322e-05
-1.24692e-05
-0.000104757
-1.08486e-05
-0.000102852
-1.01498e-05
-0.000114749
-9.34009e-06
-0.000114819
4.02236e-07
-8.36895e-05
5.73444e-05
-0.000131988
2.58508e-05
-0.000115596
6.17412e-05
-8.72237e-05
3.62618e-05
-7.91823e-05
-7.09934e-06
-0.000106823
-2.57225e-05
-6.2726e-05
-6.95212e-05
-8.15695e-05
-5.30965e-05
-4.49862e-05
-3.41437e-05
1.14131e-05
-3.16989e-05
1.58995e-06
-2.8676e-05
-5.22473e-06
-2.3901e-05
-1.2363e-05
-3.24448e-05
-1.32512e-05
-2.05212e-05
-2.38161e-05
-1.29979e-05
-2.76198e-05
-1.09114e-05
-3.92059e-05
-2.16865e-05
-8.13415e-06
1.22053e-05
-6.93376e-05
-2.12412e-05
-7.131e-05
-1.08196e-05
-0.000113274
-2.13367e-05
-0.000104232
-1.0453e-05
-0.000125703
-1.81851e-05
-7.59575e-05
-7.00858e-06
-0.000143165
-1.32104e-05
-0.000109394
8.22513e-06
-0.000108659
2.15677e-05
-9.25248e-05
-1.30265e-05
-7.22286e-05
-1.24212e-05
-6.33313e-05
-4.80606e-05
-4.59301e-05
-6.5561e-05
-2.74859e-05
-4.20322e-05
-1.21156e-05
-3.56108e-05
-4.83149e-06
-3.24591e-05
-8.37642e-06
-3.16409e-05
-1.31812e-05
-1.24317e-05
-3.24604e-05
-1.65364e-05
-1.97114e-05
-1.69225e-05
-2.72337e-05
-1.55762e-05
-4.05522e-05
-2.11265e-05
-1.61362e-05
7.27883e-06
-7.66164e-05
1.35197e-05
-7.75508e-05
-1.59174e-05
-8.38369e-05
-1.14933e-05
-0.000108656
-5.19508e-05
-8.52452e-05
-5.10117e-05
-7.68965e-05
-5.58048e-05
-0.000138372
-2.81708e-05
-0.000137028
-5.45783e-05
-8.22517e-05
-6.73655e-05
-7.97376e-05
-2.8352e-05
-0.000111242
-5.03169e-05
-4.13664e-05
-5.8826e-05
-3.7421e-05
-5.74104e-05
-2.89015e-05
-3.96331e-05
-2.98929e-05
-2.57291e-05
-1.87355e-05
-2.3816e-05
-1.02895e-05
-1.61657e-05
-2.08315e-05
-2.98014e-05
-1.88247e-05
-2.79802e-05
-2.15327e-05
-1.20955e-05
-4.31184e-05
-1.32197e-05
-3.9428e-05
-2.49784e-05
-9.36781e-06
3.61181e-06
-8.02282e-05
6.00408e-06
-7.99431e-05
5.39872e-06
-8.32315e-05
-2.28001e-05
-8.04572e-05
-2.70844e-05
-8.09608e-05
-3.12327e-05
-7.27482e-05
-3.62417e-05
-0.000133363
-5.37267e-05
-0.000119543
-6.79451e-05
-6.80333e-05
-8.45094e-05
-6.31733e-05
-9.84872e-05
-9.72644e-05
-0.000101781
-3.80722e-05
-6.75421e-05
-7.16603e-05
-5.04346e-05
-4.6009e-05
-5.63149e-05
-2.40127e-05
-4.68859e-05
-2.81645e-05
-2.73138e-05
-2.98616e-05
-2.80264e-05
-2.01189e-05
-1.69182e-05
-2.99328e-05
-8.53002e-06
-2.99209e-05
-2.34004e-05
-2.8248e-05
-2.26074e-05
-4.0221e-05
-3.39434e-05
-1.36424e-05
-3.30321e-07
-7.98979e-05
-1.53803e-06
-7.87354e-05
-8.66442e-06
-7.61051e-05
-1.12828e-05
-7.78388e-05
-1.72185e-05
-7.50251e-05
1.18283e-05
-0.000101795
-3.58826e-05
-8.56518e-05
-3.21577e-05
-0.000123268
-4.21041e-05
-5.80869e-05
-4.52089e-05
-6.00685e-05
-7.80141e-05
-6.44592e-05
-5.47415e-05
-6.13448e-05
-8.27605e-05
-4.36413e-05
-6.82665e-05
-6.0503e-05
-5.49073e-05
-3.73718e-05
-4.45592e-05
-3.85126e-05
-4.69141e-05
-2.75067e-05
-2.45379e-05
-4.24952e-05
-2.82897e-05
-2.6181e-05
-2.37201e-05
-3.44904e-05
-7.27519e-06
-4.4693e-05
-5.16081e-06
-4.23354e-05
-2.59461e-05
-1.31581e-05
-8.00487e-07
-7.90974e-05
-8.76082e-07
-7.86598e-05
-1.37168e-06
-7.56095e-05
-9.72578e-06
-6.94847e-05
-8.07364e-06
-7.66773e-05
3.59533e-06
-0.000113464
-1.07551e-06
-8.0981e-05
-4.49081e-05
-7.94353e-05
-3.43044e-05
-6.86906e-05
-3.19463e-05
-6.24265e-05
-3.35321e-05
-6.28735e-05
-3.57773e-05
-5.90996e-05
-3.33705e-05
-4.6048e-05
-5.36543e-05
-4.02193e-05
-3.00946e-05
-6.09314e-05
-2.09507e-05
-4.76565e-05
-1.72288e-05
-3.12286e-05
-2.57999e-05
-3.39241e-05
-2.16547e-05
-3.03262e-05
-1.71771e-05
-3.8968e-05
-1.65306e-05
-4.53394e-05
-1.62769e-05
-4.25891e-05
-2.90339e-05
-1.31891e-05
-3.4621e-06
-7.56353e-05
-1.16996e-05
-7.04223e-05
-1.65681e-05
-7.0741e-05
2.08905e-05
-0.000106943
1.20617e-05
-6.78485e-05
-2.00492e-05
-8.13532e-05
-2.77968e-05
-7.32334e-05
-2.87378e-05
-7.84943e-05
-2.24213e-05
-7.5007e-05
-2.11604e-05
-6.36874e-05
-2.50411e-05
-5.89928e-05
-2.96448e-05
-5.44959e-05
-3.55008e-05
-4.0192e-05
-3.30239e-05
-4.26962e-05
-2.16268e-05
-7.23285e-05
-3.11123e-05
-3.8171e-05
-2.85836e-05
-3.37573e-05
-2.40449e-05
-3.84628e-05
-1.40714e-05
-4.02997e-05
-1.19194e-05
-4.11199e-05
-8.66776e-06
-4.85911e-05
-2.36256e-06
-4.88944e-05
-3.16671e-05
2.70618e-07
-2.0765e-05
-5.48703e-05
6.04387e-07
-9.17917e-05
1.31608e-05
-8.32974e-05
-1.8045e-06
-9.1978e-05
1.52399e-05
-8.48929e-05
4.11476e-06
-7.0228e-05
-8.76502e-06
-6.03536e-05
-1.70796e-05
-7.01797e-05
-2.84809e-05
-6.36057e-05
-3.32353e-05
-5.89331e-05
-3.41369e-05
-5.80913e-05
-3.34817e-05
-5.5151e-05
-2.83669e-05
-4.53069e-05
-2.72265e-05
-4.38367e-05
-5.17647e-05
-4.77902e-05
-2.10538e-05
-6.8882e-05
-1.53499e-05
-3.94612e-05
-2.0961e-05
-3.28518e-05
-9.79007e-06
-5.14706e-05
-1.93999e-05
-3.15101e-05
-1.90329e-05
-4.89581e-05
-1.53331e-05
-5.25941e-05
-4.44922e-05
-2.50796e-06
1.60615e-05
-7.09318e-05
3.772e-06
-7.95022e-05
-4.71888e-06
-7.48065e-05
-1.32713e-05
-8.34256e-05
-2.08713e-05
-7.72929e-05
-7.13962e-06
-8.39597e-05
1.08058e-05
-7.82991e-05
-1.58429e-06
-5.77896e-05
-1.40851e-05
-5.11048e-05
-1.94986e-05
-5.35196e-05
-2.50521e-05
-5.25377e-05
-2.72727e-05
-5.29304e-05
-2.24822e-05
-5.00975e-05
-1.22849e-05
-5.40339e-05
-1.18033e-05
-4.82718e-05
-2.89876e-05
-5.16977e-05
-3.40044e-05
-3.44444e-05
-5.22546e-06
-6.16307e-05
-2.13457e-05
-3.53504e-05
-1.55499e-05
-3.73059e-05
-1.15804e-05
-5.29276e-05
-9.7635e-06
-5.4411e-05
-4.43098e-05
-9.94595e-06
-1.2975e-06
-6.96343e-05
-2.14564e-06
-7.86541e-05
-5.73764e-07
-7.63784e-05
-5.47277e-06
-7.85266e-05
-7.01467e-06
-7.5751e-05
-1.63974e-05
-7.45769e-05
-2.32926e-05
-7.14039e-05
-1.11966e-05
-6.98856e-05
-2.29222e-05
-3.93793e-05
-3.68123e-05
-3.96295e-05
-2.63183e-05
-6.30318e-05
-1.20194e-05
-6.72292e-05
2.8526e-06
-6.49694e-05
-6.14949e-06
-4.50319e-05
-1.38787e-05
-4.05425e-05
-2.08088e-05
-4.47676e-05
7.2288e-07
-5.59761e-05
-1.89242e-05
-4.19836e-05
-1.36941e-05
-4.05805e-05
-1.11507e-05
-3.98493e-05
-1.16133e-05
-5.24649e-05
-1.11695e-05
-5.48549e-05
-4.88913e-05
-6.588e-06
2.01784e-06
-7.16521e-05
1.24262e-07
-7.67605e-05
-2.22386e-06
-7.40303e-05
-5.31428e-06
-7.54362e-05
-7.15655e-06
-7.39087e-05
-7.082e-06
-7.46515e-05
-7.64392e-06
-7.0842e-05
-1.00326e-05
-6.7497e-05
-1.30462e-05
-3.63656e-05
-1.63243e-05
-3.63514e-05
-2.13487e-05
-5.80074e-05
-2.59775e-05
-6.26004e-05
-2.65561e-05
-6.43909e-05
-9.4876e-06
-6.21003e-05
-1.03802e-05
-3.96499e-05
-5.6068e-06
-4.9541e-05
-2.13413e-05
-4.02416e-05
-4.24529e-06
-5.90796e-05
-6.60256e-06
-3.82233e-05
-1.02379e-05
-3.6214e-05
-6.05898e-06
-5.66438e-05
-8.88458e-06
-5.20293e-05
-5.05673e-05
-7.20856e-06
-4.38949e-07
-7.12131e-05
-1.14325e-06
-7.60562e-05
-1.51217e-06
-7.36613e-05
-3.78808e-06
-7.31603e-05
-5.57568e-06
-7.21211e-05
-8.50232e-06
-7.17249e-05
-1.17e-05
-6.76443e-05
-1.19783e-05
-6.72186e-05
-1.43654e-05
-3.39786e-05
-1.60995e-05
-3.46173e-05
-1.52089e-05
-5.8898e-05
-1.68445e-05
-6.09648e-05
-1.58088e-05
-6.54266e-05
-1.58267e-05
-6.20824e-05
-1.83945e-05
-3.70821e-05
-8.32186e-06
-5.96136e-05
-1.27544e-05
-3.5809e-05
-2.03521e-05
-5.1482e-05
-3.81952e-06
-5.47558e-05
1.26311e-05
-5.26646e-05
-5.8193e-06
-3.81935e-05
-1.11629e-05
-4.66857e-05
-5.44782e-05
-7.25197e-06
6.11105e-07
-7.18242e-05
3.13161e-07
-7.57582e-05
3.05403e-08
-7.33787e-05
-1.28468e-06
-7.1845e-05
-2.69652e-06
-7.07093e-05
-5.51046e-06
-6.89109e-05
-7.69162e-06
-6.54632e-05
-6.88618e-06
-6.8024e-05
-3.31477e-06
-3.755e-05
-8.21859e-07
-3.71102e-05
-1.99186e-05
-3.98013e-05
-1.49242e-05
-6.59592e-05
-1.50258e-05
-6.5325e-05
-1.28849e-05
-6.42233e-05
4.10755e-06
-5.40745e-05
-8.07417e-06
-4.74319e-05
3.08368e-06
-4.69669e-05
-7.16135e-06
-4.12369e-05
-7.61064e-06
-5.43065e-05
-2.62777e-06
-5.76474e-05
-7.42981e-06
-3.33914e-05
-5.67785e-06
-4.84376e-05
-5.05209e-05
-9.63515e-06
2.82904e-07
-7.21072e-05
-9.71802e-08
-7.53781e-05
-8.91478e-07
-7.25844e-05
-3.25859e-06
-6.94779e-05
-5.58338e-06
-6.83845e-05
-5.9619e-06
-6.85324e-05
-8.50189e-06
-6.29232e-05
-9.26903e-06
-6.72569e-05
-1.00392e-05
-3.67798e-05
-9.1798e-06
-3.79696e-05
-1.00458e-05
-3.89353e-05
-9.06644e-06
-6.69386e-05
-9.37034e-06
-6.50211e-05
-8.53345e-06
-6.50602e-05
-5.89043e-06
-5.67176e-05
-1.02727e-05
-4.30496e-05
-9.28972e-06
-4.79499e-05
-8.25304e-06
-4.22736e-05
-1.02168e-05
-5.23428e-05
-3.7557e-06
-6.41085e-05
9.84381e-06
-4.69909e-05
-2.94747e-06
-3.56463e-05
-4.60595e-05
-7.40887e-06
8.42433e-07
-7.29496e-05
1.12926e-06
-7.5665e-05
2.32535e-06
-7.37805e-05
4.66051e-06
-7.18131e-05
1.2096e-05
-7.58199e-05
-7.22142e-06
-4.9215e-05
-2.5522e-05
-4.46225e-05
-1.85951e-05
-7.41838e-05
-1.28149e-05
-4.25601e-05
-9.20278e-06
-4.15817e-05
-7.0847e-06
-4.10534e-05
-9.60815e-06
-6.44152e-05
-1.09872e-05
-6.3642e-05
-1.25319e-05
-6.35154e-05
-1.29806e-05
-5.62689e-05
6.11031e-07
-5.66412e-05
5.94965e-06
-5.32885e-05
-1.80753e-06
-3.45164e-05
2.61429e-06
-5.67646e-05
6.16333e-07
-6.21105e-05
-9.58025e-06
-3.67944e-05
-1.13579e-05
-3.38687e-05
-5.13843e-05
-6.03308e-06
1.10015e-07
-7.30596e-05
1.10124e-08
-7.5566e-05
-9.89997e-08
-7.36705e-05
-2.10361e-06
-6.98085e-05
-4.89764e-06
-7.30259e-05
-5.09213e-06
-4.90205e-05
-6.10558e-06
-4.36091e-05
-5.42139e-06
-7.4868e-05
-4.3287e-06
-4.36528e-05
-4.9861e-06
-4.09243e-05
-4.0235e-06
-4.2016e-05
-6.77377e-06
-6.16649e-05
-7.34148e-06
-6.30743e-05
-7.32263e-06
-6.35343e-05
-3.63945e-06
-5.99521e-05
-2.63525e-06
-5.76454e-05
-1.60075e-05
-3.99162e-05
2.4064e-07
-5.07646e-05
-1.36413e-05
-4.28827e-05
-2.32365e-05
-5.25153e-05
-1.59324e-06
-5.84376e-05
1.28489e-05
-4.83109e-05
-3.09765e-05
-7.55887e-06
1.72322e-07
-7.32319e-05
4.86542e-07
-7.58802e-05
9.83084e-07
-7.4167e-05
8.13515e-09
-6.88335e-05
-1.0985e-06
-7.19193e-05
-8.6869e-06
-4.14321e-05
-1.11923e-05
-4.11037e-05
-2.36274e-05
-6.24329e-05
-6.53046e-06
-6.07497e-05
8.20361e-06
-5.56584e-05
1.41904e-06
-3.52314e-05
-3.58563e-06
-5.66602e-05
-6.75033e-06
-5.99096e-05
-8.49414e-06
-6.17905e-05
-9.34358e-06
-5.91027e-05
-1.13825e-05
-5.56065e-05
6.38343e-06
-5.76821e-05
6.18915e-06
-5.05703e-05
5.79496e-07
-3.7273e-05
1.04533e-06
-5.29812e-05
-6.15553e-07
-5.67768e-05
-1.52866e-05
-3.36398e-05
-3.93936e-05
-6.86953e-06
-1.38311e-07
-7.30936e-05
-3.96431e-07
-7.5622e-05
-7.07945e-07
-7.38555e-05
-4.24741e-06
-6.52941e-05
-1.27621e-05
-6.34045e-05
5.79811e-06
-5.99923e-05
2.06251e-06
-3.73681e-05
-9.80731e-07
-5.93896e-05
-6.52601e-07
-6.10779e-05
2.31134e-06
-5.86223e-05
4.29416e-06
-3.72142e-05
-1.43912e-05
-3.79749e-05
-9.49907e-06
-6.48017e-05
-6.58043e-06
-6.47091e-05
-4.61861e-06
-6.10645e-05
-3.23015e-06
-5.6995e-05
-5.99491e-06
-5.49174e-05
-6.86018e-07
-5.58792e-05
1.47519e-05
-5.2711e-05
-2.94168e-06
-3.52876e-05
-2.29394e-05
-3.6779e-05
-1.81451e-06
-5.47647e-05
-3.7102e-05
-4.10612e-06
-8.28518e-08
-7.30107e-05
-4.89078e-07
-7.52158e-05
-4.61011e-08
-7.42985e-05
-1.11996e-06
-6.42202e-05
-7.5186e-07
-6.37726e-05
3.77349e-06
-6.45177e-05
3.22686e-06
-3.68214e-05
-1.63364e-05
-3.98263e-05
-7.98908e-06
-6.94252e-05
-4.05302e-06
-6.25584e-05
-9.83254e-07
-4.0284e-05
-2.25268e-06
-3.67055e-05
-5.83481e-06
-6.12196e-05
-5.96717e-06
-6.45768e-05
-5.49335e-06
-6.15383e-05
-4.00969e-06
-5.84786e-05
-2.56908e-06
-5.6358e-05
-1.93483e-06
-5.65135e-05
-4.83837e-06
-4.98074e-05
-2.50331e-06
-3.76226e-05
1.00159e-05
-4.92982e-05
-1.11884e-05
-3.35604e-05
-5.38084e-05
5.51799e-06
1.95101e-07
-7.32058e-05
7.41385e-07
-7.57621e-05
3.58637e-06
-7.71435e-05
5.98171e-06
-6.66155e-05
-1.31031e-05
-4.46878e-05
-5.20413e-06
-7.24167e-05
-2.26254e-06
-3.9763e-05
-3.86624e-06
-3.82226e-05
-2.0869e-06
-7.12046e-05
-3.57947e-06
-6.10658e-05
-4.26e-06
-3.96035e-05
-6.41611e-06
-3.45493e-05
-5.67039e-06
-6.19653e-05
-5.23238e-06
-6.50148e-05
-3.48237e-06
-6.32883e-05
-2.53065e-06
-5.94303e-05
-1.93384e-06
-5.69548e-05
-6.07113e-07
-5.78402e-05
4.19496e-06
-5.46095e-05
1.12343e-06
-3.45511e-05
3.0573e-06
-5.12321e-05
5.85845e-06
-3.63615e-05
-3.80466e-05
-9.9033e-06
-6.6498e-07
-7.25409e-05
-5.97862e-07
-7.58292e-05
-7.09484e-07
-7.70319e-05
-2.20876e-07
-6.71041e-05
-3.38614e-06
-4.15225e-05