/*--------------------------------*- C++ -*----------------------------------*\
| =========                 |                                                 |
| \\      /  F ield         | foam-extend: Open Source CFD                    |
|  \\    /   O peration     | Version:     4.1                                |
|   \\  /    A nd           | Web:         http://www.foam-extend.org         |
|    \\/     M anipulation  |                                                 |
\*---------------------------------------------------------------------------*/
FoamFile
{
    version     2.0;
    format      ascii;
    class       surfaceScalarField;
    location    "0.45";
    object      phi_0;
}
// * * * * * * * * * * * * * * * * * * * * * * * * * * * * * * * * * * * * * //

dimensions      [0 3 -1 0 0 0 0];

internalField   nonuniform List<scalar> 
4432
(
1.64843e-06
-1.64843e-06
4.83783e-06
-3.1894e-06
7.96854e-06
-3.13071e-06
1.20603e-05
-4.09174e-06
1.883e-05
-6.76968e-06
2.67031e-05
-7.87318e-06
2.9463e-05
-2.75986e-06
4.10777e-05
-1.16147e-05
4.71927e-05
-6.11504e-06
7.76609e-05
-3.04682e-05
7.71931e-05
4.67755e-07
8.08264e-05
-3.6333e-06
8.03728e-05
4.53588e-07
7.97833e-05
5.89494e-07
4.91558e-05
3.06276e-05
5.14896e-05
-2.33386e-06
4.60304e-05
5.45926e-06
3.51708e-05
1.08595e-05
2.51122e-05
1.00586e-05
2.81341e-05
-3.02186e-06
2.2195e-05
5.93909e-06
-6.13556e-07
2.28086e-05
-6.13556e-07
1.84242e-06
-3.49085e-06
5.0411e-06
-6.38807e-06
8.03058e-06
-6.1202e-06
1.20927e-05
-8.15382e-06
1.89191e-05
-1.35961e-05
2.63051e-05
-1.52592e-05
2.93373e-05
-5.79209e-06
4.21041e-05
-2.43814e-05
4.79078e-05
-1.19187e-05
7.49147e-05
-5.74751e-05
7.59081e-05
-5.25593e-07
7.93586e-05
-7.08378e-06
8.21514e-05
-2.33922e-06
8.0498e-05
2.24282e-06
8.21735e-05
2.89521e-05
4.81425e-05
3.16971e-05
4.57885e-05
7.81329e-06
6.88882e-05
-1.22402e-05
5.89612e-05
1.99855e-05
5.18283e-05
4.11107e-06
4.63174e-05
1.145e-05
4.28494e-05
2.62766e-05
4.22358e-05
1.93346e-06
-5.42432e-06
5.23437e-06
-9.68898e-06
8.04765e-06
-8.93347e-06
1.19974e-05
-1.21035e-05
1.83759e-05
-1.99746e-05
2.65359e-05
-2.34192e-05
3.14348e-05
-1.0691e-05
4.11694e-05
-3.41159e-05
4.44162e-05
-1.51656e-05
4.02666e-05
-5.33255e-05
6.83696e-05
-2.86286e-05
6.90296e-05
-7.74377e-06
6.71518e-05
-4.61418e-07
3.86095e-05
3.07851e-05
4.42688e-05
2.32928e-05
4.84997e-05
2.74663e-05
4.42295e-05
1.20835e-05
3.60855e-05
-4.09617e-06
5.67728e-05
-7.01762e-07
4.24119e-05
1.84719e-05
3.44009e-05
1.94611e-05
2.03943e-05
4.02832e-05
6.26301e-05
2.57186e-06
-7.99618e-06
5.8055e-06
-1.29226e-05
7.99786e-06
-1.11258e-05
1.23604e-05
-1.64661e-05
2.05018e-05
-2.8116e-05
2.86499e-05
-3.15673e-05
3.28682e-05
-1.49093e-05
3.96309e-05
-4.08787e-05
3.97809e-05
-1.53156e-05
3.77476e-05
-5.12922e-05
3.38058e-05
-2.46868e-05
6.48817e-05
-3.88196e-05
3.92545e-05
2.51658e-05
7.4762e-05
-4.7225e-06
7.56948e-05
2.23601e-05
7.92251e-05
2.39359e-05
7.82001e-05
1.31085e-05
6.74541e-05
6.64979e-06
6.30703e-05
3.68207e-06
5.35797e-05
2.79625e-05
4.36472e-05
2.93936e-05
2.25133e-05
6.1417e-05
8.51434e-05
2.52094e-06
-1.05171e-05
5.82148e-06
-1.62232e-05
8.1662e-06
-1.34705e-05
1.38371e-05
-2.2137e-05
2.28799e-05
-3.71588e-05
2.84165e-05
-3.71039e-05
3.02786e-05
-1.67713e-05
3.74261e-05
-4.80262e-05
3.70225e-05
-1.49119e-05
3.71436e-05
-5.14133e-05
6.78932e-05
-5.54365e-05
3.9687e-05
-1.06134e-05
7.05917e-05
-5.7388e-06
7.61107e-05
-1.02416e-05
7.18991e-05
2.65717e-05
6.90287e-05
2.68063e-05
6.70268e-05
1.51104e-05
6.31019e-05
1.05747e-05
6.27144e-05
4.06955e-06
5.37484e-05
3.69285e-05
4.38123e-05
3.93297e-05
2.30077e-05
8.22216e-05
0.000108151
3.78664e-06
-1.43038e-05
6.59075e-06
-1.90273e-05
9.20694e-06
-1.60867e-05
1.62199e-05
-2.915e-05
2.40475e-05
-4.49864e-05
2.7702e-05
-4.07585e-05
5.24641e-05
-4.15334e-05
3.77656e-05
-3.33277e-05
7.01686e-05
-4.73149e-05
7.11875e-05
-5.24323e-05
7.19733e-05
-5.62222e-05
7.14578e-05
-1.0098e-05
7.04968e-05
-4.77777e-06
4.54291e-05
1.48261e-05
8.13332e-05
-9.33235e-06
6.93794e-05
3.87601e-05
7.13464e-05
1.31434e-05
7.06393e-05
1.12818e-05
7.08688e-05
3.84001e-06
5.89455e-05
4.88519e-05
4.69974e-05
5.12777e-05
2.27362e-05
0.000106483
0.000130887
3.40749e-06
-1.77113e-05
6.60815e-06
-2.22279e-05
1.05707e-05
-2.00493e-05
1.81798e-05
-3.67591e-05
2.49796e-05
-5.17862e-05
2.83212e-05
-4.41001e-05
3.19648e-05
-4.5177e-05
3.98016e-05
-4.11645e-05
6.62814e-05
-7.37947e-05
7.15591e-05
-5.771e-05
4.13047e-05
-2.59678e-05
7.38664e-05
-4.26597e-05
4.07547e-05
2.8334e-05
4.77634e-05
7.81734e-06
4.65794e-05
-8.14831e-06
7.03903e-05
1.49491e-05
6.57738e-05
1.77599e-05
6.98014e-05
7.25427e-06
7.92949e-05
-5.65355e-06
6.84607e-05
5.96861e-05
5.22462e-05
6.74922e-05
4.48847e-05
0.000113844
0.000175772
5.95983e-06
-2.36711e-05
7.43593e-06
-2.3704e-05
1.23028e-05
-2.49161e-05
2.0093e-05
-4.45493e-05
2.71767e-05
-5.88698e-05
3.18181e-05
-4.87416e-05
5.94638e-05
-7.28226e-05
7.13833e-05
-5.30841e-05
7.33979e-05
-7.58093e-05
7.66186e-05
-6.09308e-05
8.23235e-05
-3.16727e-05
4.4494e-05
-4.83015e-06
6.74905e-05
5.33751e-06
7.27918e-05
2.51604e-06
4.02502e-05
2.43933e-05
3.05815e-05
2.46178e-05
5.01226e-05
-1.78115e-06
5.5942e-05
1.43486e-06
4.32174e-05
7.07107e-06
7.76883e-05
2.52152e-05
6.18235e-05
8.33571e-05
4.38944e-05
0.000131773
0.000219667
-0.000111823
0.000111823
-0.00013647
2.46472e-05
-0.000144038
7.56826e-06
-0.000147288
3.24983e-06
-0.000153341
6.05252e-06
-0.000158294
4.9532e-06
-0.000152725
-5.56905e-06
-9.17729e-05
-6.0952e-05
-9.72228e-05
5.44996e-06
-0.000141568
4.43453e-05
-9.85175e-05
-4.30506e-05
-0.000172472
7.39549e-05
-0.000146285
-2.61874e-05
-9.68284e-05
-4.94566e-05
-4.3515e-05
-5.33134e-05
-1.37286e-05
-2.97864e-05
-1.55046e-05
1.77605e-06
-3.60486e-05
2.0544e-05
-3.60486e-05
-2.84439e-05
0.000140267
-6.38733e-05
6.00767e-05
-8.19184e-05
2.56133e-05
-8.69322e-05
8.26366e-06
-8.23708e-05
1.49108e-06
-7.26654e-05
-4.75213e-06
-4.52349e-05
-3.29996e-05
-7.05339e-05
-3.5653e-05
-8.46754e-05
1.95915e-05
-0.000130711
9.03813e-05
-0.00014917
-2.4592e-05
-7.5631e-05
4.15809e-07
-8.06737e-05
-2.11447e-05
-4.24906e-05
-8.76397e-05
-1.49594e-05
-8.08446e-05
4.08911e-06
-4.8835e-05
-3.40961e-06
9.27478e-06
-8.60291e-06
2.57373e-05
-4.46515e-05
-8.11267e-06
0.000148379
-4.78566e-06
5.67496e-05
-1.07977e-05
3.16254e-05
-2.15414e-05
1.90074e-05
-3.96146e-05
1.95642e-05
-3.14956e-05
-1.28711e-05
-5.27891e-05
-1.17061e-05
-9.44417e-05
5.99962e-06
-0.000101055
2.62043e-05
-6.20514e-05
5.13783e-05
-6.23955e-05
-2.4248e-05
-4.28439e-05
-1.91358e-05
-1.54709e-05
-4.85177e-05
1.6624e-05
-0.000119735
2.00923e-05
-8.43129e-05
2.03353e-05
-4.9078e-05
1.57238e-05
1.38863e-05
1.07225e-05
3.07386e-05
-3.39291e-05
1.88322e-05
0.000129547
4.46787e-05
3.09031e-05
8.38233e-05
-7.51924e-06
3.53493e-05
6.74814e-05
1.88149e-05
3.60987e-05
1.05763e-05
-4.63253e-06
2.32095e-08
-1.15308e-06
-2.50022e-05
3.1025e-05
-3.54852e-05
3.66874e-05
-4.13085e-06
2.0024e-05
1.26615e-06
-2.9645e-05
2.57986e-06
-2.04495e-05
5.48398e-05
-0.000100778
4.38147e-05
-0.00010871
4.78347e-05
-8.83328e-05
3.82731e-05
-3.95164e-05
2.92121e-05
2.29474e-05
2.16027e-05
3.8348e-05
-1.23264e-05
2.59989e-05
0.000103548
4.79247e-05
8.97736e-06
4.48276e-05
-4.42217e-06
2.17286e-05
9.05804e-05
8.60163e-06
4.92256e-05
-1.36799e-05
1.7649e-05
-1.61186e-05
1.28561e-06
3.63618e-06
1.12702e-05
3.20181e-05
8.30538e-06
4.29945e-05
9.04763e-06
3.04514e-05
-1.71019e-05
4.36662e-05
-3.36643e-05
5.84941e-05
-0.000115606
6.18957e-05
-0.000112111
6.30783e-05
-8.95154e-05
5.54644e-05
-3.19026e-05
4.31043e-05
3.53075e-05
2.61244e-05
5.53279e-05
1.3798e-05
2.63033e-05
7.7245e-05
3.51817e-05
9.89965e-08
3.00743e-05
6.85201e-07
2.38876e-05
9.67671e-05
3.483e-06
6.96302e-05
-1.74912e-06
2.28811e-05
2.03294e-05
-2.0793e-05
5.32017e-05
-2.16021e-05
7.78925e-05
-1.63854e-05
4.6757e-05
4.01831e-05
5.49796e-05
-2.53245e-05
6.54696e-05
-4.41543e-05
7.31617e-05
-0.000123298
7.141e-05
-0.000110359
6.97064e-05
-8.78117e-05
6.40392e-05
-2.62354e-05
5.19054e-05
4.74413e-05
3.2717e-05
7.45163e-05
4.6515e-05
3.956e-05
3.76849e-05
5.93345e-05
-1.96755e-05
5.68261e-05
3.19352e-06
8.74537e-06
0.000144848
-3.08297e-06
8.14585e-05
2.30772e-05
-3.27902e-06
1.22003e-05
-9.91605e-06
-4.65537e-05
3.71519e-05
2.46663e-05
-8.76054e-05
5.00593e-05
1.47901e-05
7.22847e-05
-4.75499e-05
8.47586e-05
-5.66282e-05
8.78487e-05
-0.000126388
8.32496e-05
-0.00010576
7.70267e-05
-8.15889e-05
7.10828e-05
-2.02915e-05
5.64777e-05
6.20464e-05
3.55616e-05
9.54325e-05
8.20766e-05
1.44865e-05
2.31984e-05
4.80416e-05
-5.32305e-05
5.05368e-05
6.98268e-07
1.0993e-05
0.000184392
7.87487e-06
8.45767e-05
3.6543e-05
-3.19471e-05
4.34018e-06
2.22867e-05
-1.56362e-05
5.71283e-05
3.47171e-05
-0.000137959
6.71335e-05
-1.76263e-05
9.53218e-05
-7.57382e-05
0.000100676
-6.19823e-05
9.76366e-05
-0.000123348
9.04104e-05
-9.85342e-05
7.92498e-05
-7.04283e-05
7.31767e-05
-1.42184e-05
6.22308e-05
7.29924e-05
3.75492e-05
0.000120114
0.000119626
1.67951e-05
-4.04662e-05
3.47262e-05
-4.16351e-05
5.55454e-05
-4.57354e-05
8.77361e-05
-7.674e-05
0.000111777
-8.29109e-05
0.000132657
-6.96213e-05
0.000152755
-9.29207e-05
0.000181227
-8.15557e-05
0.000188523
-8.31055e-05
0.000190968
-6.33755e-05
0.000175706
-1.64108e-05
0.000148569
2.23068e-05
0.00014513
8.77629e-06
0.000113359
3.42873e-05
0.000126457
1.12947e-05
0.00017239
-2.13146e-05
0.000161887
8.72148e-06
0.000160412
2.90955e-06
0.00015693
1.0554e-05
0.000143286
3.88591e-05
0.000145674
8.09682e-05
0.00013744
0.000140007
0.00014375
0.000213357
6.68445e-06
-4.71506e-05
2.28425e-05
-5.77931e-05
4.16589e-05
-6.45518e-05
6.75996e-05
-0.000102681
6.44111e-05
-7.97225e-05
8.27286e-05
-8.79388e-05
9.42246e-05
-0.000104417
0.00010544
-9.27708e-05
0.000106289
-8.39549e-05
0.000100846
-5.79323e-05
8.84833e-05
-4.04827e-06
0.000127014
-1.62235e-05
0.000138969
-3.17906e-06
0.000160468
1.27883e-05
0.00016743
4.33267e-06
0.000151288
-5.17245e-06
0.000147778
1.2231e-05
0.000128385
2.23035e-05
0.000112682
2.62566e-05
0.00012912
2.24204e-05
9.78588e-05
0.00011223
0.000127364
0.000110502
0.000119242
0.000151872
-1.82228e-05
-2.89278e-05
-1.89616e-05
-5.70543e-05
4.10923e-05
-0.000124606
5.41189e-05
-0.000115707
5.50731e-05
-8.06767e-05
4.35863e-05
-7.6452e-05
5.96721e-05
-0.000120502
6.97251e-05
-0.000102824
8.68532e-05
-0.000101083
9.95872e-05
-7.06662e-05
0.000143587
-4.80478e-05
0.00012534
2.02332e-06
0.000141988
-1.98267e-05
0.000163174
-8.39851e-06
0.000168067
-5.6026e-07
0.000141452
2.14434e-05
0.00013463
1.90525e-05
0.000131243
2.56908e-05
0.000134526
2.29728e-05
9.12891e-05
6.56578e-05
0.000121909
8.16098e-05
0.000163932
6.8479e-05
0.000122002
0.000161172
-3.26403e-05
3.71252e-06
8.69563e-06
-9.83903e-05
9.59257e-06
-0.000125503
5.20902e-05
-0.000158205
1.9375e-05
-4.79614e-05
1.41247e-05
-7.12018e-05
2.7479e-05
-0.000133857
1.18676e-05
-8.72125e-05
1.68861e-05
-0.000106101
4.84436e-05
-0.000102224
8.93173e-05
-8.89216e-05
0.00012392
-3.2579e-05
0.000106871
-2.77821e-06
0.000117351
-1.88783e-05
0.000107877
8.91323e-06
0.000118827
1.04934e-05
9.62077e-05
4.16722e-05
0.000104847
1.70511e-05
7.60308e-05
5.17895e-05
0.000109921
3.17673e-05
0.000134082
5.74494e-05
0.000144466
5.80946e-05
3.30705e-05
0.000233398
-2.7018e-05
3.07305e-05
-1.12998e-05
-0.000114108
3.21813e-06
-0.000140021
-6.41544e-06
-0.000148571
1.42288e-05
-6.86056e-05
1.76588e-05
-7.46317e-05
-1.3205e-05
-0.000102993
-1.51907e-05
-8.52269e-05
-1.65715e-05
-0.000104721
5.07876e-06
-0.000123874
6.31547e-05
-0.000146998
0.000110854
-8.02784e-05
0.00019126
-8.31843e-05
0.000198708
-2.63261e-05
0.000180635
2.69861e-05
0.000127674
6.34542e-05
0.000117608
5.1739e-05
0.000138395
-3.73665e-06
0.000168405
2.17795e-05
0.000192569
7.6038e-06
0.000211041
3.89769e-05
0.000201521
6.76151e-05
5.70763e-05
0.000177515
6.14747e-06
2.4583e-05
-1.90288e-06
-0.000106058
-2.7991e-06
-0.000139124
-6.75676e-07
-0.000150695
7.69091e-07
-7.00504e-05
2.7745e-06
-7.66371e-05
-5.80022e-06
-9.44182e-05
-2.36484e-05
-6.73787e-05
-3.62095e-05
-9.21596e-05
-2.96052e-06
-0.000157123
6.60819e-05
-0.00021604
0.000107845
-0.000122041
0.000110658
-8.59977e-05
0.000112775
-2.84425e-05
7.15367e-05
6.82239e-05
3.4429e-05
0.000100562
6.92769e-05
1.68911e-05
0.000120161
-5.46211e-05
0.000216766
-7.4825e-05
0.000210287
1.40822e-05
0.000210946
3.83183e-05
0.0002172
6.13609e-05
6.80073e-05
0.000206269
6.01202e-05
-3.55372e-05
5.50853e-05
-0.000101023
4.26442e-05
-0.000126683
8.54565e-06
-0.000116596
-1.34587e-05
-4.80461e-05
-3.41216e-05
-5.59742e-05
-4.88042e-05
-7.97357e-05
-3.61482e-05
-8.00346e-05
-2.13747e-05
-0.000106933
1.53016e-05
-0.000193799
8.15829e-05
-0.000282321
7.60182e-05
-0.000116477
4.98585e-05
-5.98381e-05
3.05801e-05
-9.16411e-06
3.88926e-05
5.99115e-05
7.50571e-05
6.43974e-05
5.15378e-05
4.04103e-05
5.65378e-05
-5.96212e-05
8.03284e-05
-9.86156e-05
0.000140324
-4.59134e-05
0.000192784
-1.41418e-05
0.000214633
3.95117e-05
8.20844e-05
0.000200556
9.05937e-05
-0.000126131
8.55922e-05
-9.60217e-05
4.91772e-05
-9.02682e-05
-9.80808e-06
-5.7611e-05
-5.24541e-05
-5.4001e-06
-1.30146e-05
-9.54137e-05
-1.83286e-05
-7.44217e-05
-3.50795e-05
-6.32837e-05
1.40492e-06
-0.000143418
8.25363e-06
-0.000200648
3.08006e-05
-0.000304868
2.33718e-05
-0.000109048
2.03022e-05
-5.67685e-05
3.13429e-05
-2.02047e-05
-5.81965e-06
9.7074e-05
2.18698e-06
5.63908e-05
2.93624e-05
1.32349e-05
1.67623e-05
-4.70211e-05
5.19233e-06
-8.70456e-05
3.20176e-05
-7.27386e-05
6.41487e-05
-4.62729e-05
9.81294e-05
5.53105e-06
2.39854e-05
0.000156228
-1.39421e-06
-0.000124737
5.91862e-07
-9.80078e-05
-6.30709e-07
-8.90457e-05
-5.63708e-06
-5.26046e-05
-8.37189e-06
-2.66529e-06
-3.86025e-05
-6.51831e-05
-3.44819e-05
-7.85423e-05
-5.78179e-06
-9.19837e-05
7.08686e-06
-0.000156286
-1.38133e-06
-0.00019218
-2.31731e-05
-0.000283076
1.0322e-05
-0.000142543
1.65746e-05
-6.30212e-05
1.61654e-05
-1.97955e-05
3.70994e-05
7.614e-05
1.96581e-05
7.38321e-05
4.83255e-05
-1.54326e-05
1.74346e-05
-1.61301e-05
1.88688e-05
-8.84798e-05
1.69876e-05
-7.08574e-05
3.38078e-05
-6.30932e-05
8.22566e-05
-4.29177e-05
7.53331e-06
9.87087e-05
1.35094e-05
-0.000138246
1.9073e-06
-8.64057e-05
7.21695e-06
-9.43553e-05
1.6679e-05
-6.20667e-05
1.7078e-05
-3.0643e-06
7.0968e-06
-5.52019e-05
5.30783e-06
-7.67533e-05
9.28101e-06
-9.59569e-05
-4.22435e-06
-0.000142781
-2.31886e-07
-0.000196172
-2.3908e-05
-0.0002594
-1.64858e-05
-0.000149965
2.06173e-06
-8.15687e-05
4.52669e-06
-2.22605e-05
-2.00507e-05
0.000100717
-5.88973e-06
5.96711e-05
3.57762e-06
-2.48999e-05
1.18845e-05
-2.44369e-05
-5.43894e-06
-7.11565e-05
-1.02453e-05
-6.60511e-05
-1.3727e-05
-5.96115e-05
-1.49825e-05
-4.16622e-05
1.35298e-05
-2.0979e-05
-2.09597e-06
-0.00013615
-4.94503e-06
-8.35567e-05
-5.53355e-06
-9.37668e-05
4.1954e-06
-7.17956e-05
3.10114e-05
-2.98803e-05
1.45793e-05
-3.87698e-05
2.50827e-06
-6.46823e-05
1.38467e-07
-9.35871e-05
-1.524e-05
-0.000127402
-1.65964e-06
-0.000209753
-2.34711e-05
-0.000237589
-5.52685e-06
-0.000167909
-4.61854e-05
-4.09102e-05
-7.00106e-05
1.56473e-06
-3.58078e-05
6.65146e-05
-8.05547e-06
3.19188e-05
-5.48836e-06
-2.7467e-05
5.91114e-06
-3.58364e-05
-6.30899e-06
-5.89363e-05
-1.52771e-05
-5.7083e-05
-4.06057e-05
-3.42828e-05
-3.4626e-05
-4.76419e-05
-1.9142e-05
-1.95415e-06
-8.83544e-06
-0.000127315
-1.16047e-05
-8.07874e-05
-7.80105e-06
-9.75704e-05
-8.56171e-06
-7.1035e-05
1.18395e-05
-5.02816e-05
1.79336e-05
-4.48639e-05
5.7493e-06
-5.24979e-05
-2.14107e-06
-8.56967e-05
-1.44231e-05
-0.00011512
-2.82395e-06
-0.000221352
-3.1025e-05
-0.000209388
-1.32499e-05
-0.000185684
-4.34556e-05
-1.07044e-05
-6.44347e-05
2.25438e-05
-2.3667e-05
2.57469e-05
2.70951e-06
5.54225e-06
1.62941e-06
-2.63869e-05
-1.00262e-05
-2.41808e-05
-1.59247e-05
-5.30378e-05
-4.48118e-05
-2.81959e-05
-4.15072e-05
-3.75875e-05
-5.40599e-05
-3.50892e-05
-4.10338e-05
-3.21681e-05
-2.97007e-05
-9.7614e-05
1.05909e-06
-0.000111547
-1.42822e-05
-8.22291e-05
1.35542e-05
-9.88714e-05
1.95679e-05
-5.62953e-05
2.38185e-05
-4.91145e-05
2.11695e-05
-4.98489e-05
9.59498e-06
-7.41222e-05
-8.32416e-06
-9.72012e-05
7.42028e-07
-0.000230418
-1.76028e-05
-0.000191043
-9.7406e-05
-0.000105881
-5.33913e-05
-5.47192e-05
-3.17013e-05
8.53878e-07
-7.54771e-07
-5.19964e-06
6.02047e-06
-1.23299e-06
-2.85841e-07
-2.00806e-05
-3.20011e-06
-2.12665e-05
-2.74413e-05
-2.87966e-05
-2.86953e-05
-2.69419e-05
-3.99163e-05
-2.63665e-05
-2.3804e-05
-5.12014e-05
-3.1584e-05
-3.32538e-05
9.81459e-06
-0.000107429
-6.4711e-06
-9.52615e-05
-1.06362e-06
-8.76366e-05
4.47013e-06
-0.000104405
3.50258e-05
-8.68509e-05
3.05134e-05
-4.46021e-05
3.7235e-05
-5.65705e-05
5.01089e-05
-8.69962e-05
1.03286e-07
-4.71956e-05
-1.94458e-06
-0.00022837
-1.6617e-05
-0.000176371
-3.64923e-05
-8.60057e-05
1.90841e-05
-0.000110296
2.67087e-05
-6.77077e-06
1.39146e-05
7.59454e-06
1.13649e-05
1.3167e-06
-2.29176e-06
-6.42396e-06
-1.08138e-05
-1.27444e-05
-1.84404e-05
-2.11701e-05
-2.09016e-05
-2.44807e-05
-9.23774e-06
-3.80303e-05
-3.48401e-05
-2.55991e-05
-3.29277e-05
-3.34964e-05
-1.43858e-05
-9.30427e-05
-1.45119e-05
-9.51354e-05
-7.74986e-06
-9.43987e-05
1.95817e-06
-0.000114113
2.26841e-05
-0.000107577
3.78227e-05
-5.97407e-05
5.57454e-05
-7.44931e-05
9.04518e-05
-0.000121703
9.5522e-05
-5.22658e-05
9.09242e-06
-0.000141941
-1.54564e-06
-0.000165732
-2.50601e-05
-6.24912e-05
3.73476e-06
-0.000139091
2.50224e-05
-2.80584e-05
4.72787e-06
2.78891e-05
8.56289e-07
5.18828e-06
-4.38926e-06
-1.17841e-06
-2.17419e-06
-1.49595e-05
-3.25057e-06
-2.00937e-05
-8.39246e-06
-1.93388e-05
-1.56267e-05
-3.07961e-05
-1.90996e-05
-2.21261e-05
-1.82262e-05
-3.38011e-05
-8.30084e-06
-8.47419e-05
-1.29893e-05
-9.0447e-05
-5.75111e-06
-0.000101637
-5.29494e-06
-0.000114569
1.60991e-06
-0.000114482
1.61176e-05
-7.42484e-05
1.69869e-05
-7.53624e-05
4.24963e-05
-0.000147212
4.1638e-05
-5.14074e-05
4.92805e-06
-0.000105231
-1.03849e-05
-0.00015042
7.19806e-06
-8.00742e-05
-5.87008e-06
-0.000126022
-5.53363e-06
-2.83949e-05
-8.16325e-06
3.05187e-05
-7.10596e-06
4.131e-06
-6.07195e-06
-2.21241e-06
-1.35058e-05
-7.52563e-06
-1.18296e-05
-2.177e-05
-1.93032e-05
-1.18652e-05
-2.99949e-05
-2.01044e-05
-1.50841e-05
-3.7037e-05
-1.8983e-05
-1.43273e-05
-2.73289e-05
-5.7413e-05
-1.25718e-05
-0.000105204
-1.09145e-05
-0.000103294
-1.03041e-05
-0.00011518
-9.41301e-06
-0.000115373
3.14075e-07
-8.39755e-05
5.74862e-05
-0.000132535
2.60765e-05
-0.000115802
6.20615e-05
-8.73925e-05
3.62808e-05
-7.94499e-05
-7.17633e-06
-0.000106962
-2.54519e-05
-6.17986e-05
-6.9314e-05
-8.21602e-05
-5.28759e-05
-4.4833e-05
-3.3904e-05
1.15469e-05
-3.14778e-05
1.70474e-06
-2.85099e-05
-5.1803e-06
-2.37231e-05
-1.23124e-05
-3.22714e-05
-1.32216e-05
-2.03431e-05
-2.37935e-05
-1.28e-05
-2.76475e-05
-1.05648e-05
-3.92721e-05
-2.17929e-05
-7.75492e-06
1.22352e-05
-6.96482e-05
-2.13619e-05
-7.1607e-05
-1.09135e-05
-0.000113742
-2.14641e-05
-0.000104629
-1.05585e-05
-0.000126278
-1.83349e-05
-7.61991e-05
-7.07877e-06
-0.000143791
-1.31899e-05
-0.000109691
8.44034e-06
-0.000109023
2.14705e-05
-9.24801e-05
-1.32717e-05
-7.22202e-05
-1.19956e-05
-6.30747e-05
-4.80247e-05
-4.61311e-05
-6.559e-05
-2.72678e-05
-4.20267e-05
-1.20164e-05
-3.55264e-05
-4.79558e-06
-3.23926e-05
-8.31415e-06
-3.15309e-05
-1.31741e-05
-1.23409e-05
-3.24116e-05
-1.64161e-05
-1.97183e-05
-1.68213e-05
-2.72423e-05
-1.53918e-05
-4.07017e-05
-2.12117e-05
-1.59729e-05
7.28577e-06
-7.6934e-05
1.35444e-05
-7.78657e-05
-1.60031e-05
-8.41949e-05
-1.15712e-05
-0.000109061
-5.22347e-05
-8.56149e-05
-5.12062e-05
-7.72276e-05
-5.61375e-05
-0.000138859
-2.83785e-05
-0.00013745
-5.4806e-05
-8.25952e-05
-6.73634e-05
-7.99227e-05
-2.83407e-05
-0.000111243
-5.03315e-05
-4.10839e-05
-5.89361e-05
-3.75265e-05
-5.74089e-05
-2.8795e-05
-3.96088e-05
-2.98164e-05
-2.57063e-05
-1.8698e-05
-2.37643e-05
-1.02562e-05
-1.60957e-05
-2.08427e-05
-2.96919e-05
-1.88154e-05
-2.78369e-05
-2.15732e-05
-1.19724e-05
-4.31068e-05
-1.30915e-05
-3.95826e-05
-2.51689e-05
-9.13427e-06
3.61174e-06
-8.05457e-05
5.99073e-06
-8.02447e-05
5.35309e-06
-8.35572e-05
-2.28934e-05
-8.08146e-05
-2.72171e-05
-8.12912e-05
-3.13852e-05
-7.30595e-05
-3.6504e-05
-0.000133741
-5.40389e-05
-0.000119915
-6.83722e-05
-6.82619e-05
-8.49643e-05
-6.33306e-05
-9.88601e-05
-9.73471e-05
-0.000101893
-3.80505e-05
-6.77671e-05
-7.16527e-05
-5.05781e-05
-4.5984e-05
-5.63983e-05
-2.39963e-05
-4.69295e-05
-2.81668e-05
-2.73235e-05
-2.98621e-05
-2.80024e-05
-2.01638e-05
-1.68479e-05
-2.99699e-05
-8.40995e-06
-3.00111e-05
-2.321e-05
-2.83068e-05
-2.23291e-05
-4.04634e-05
-3.40342e-05
-1.34638e-05
-3.47198e-07
-8.01985e-05
-1.54842e-06
-7.90434e-05
-8.72412e-06
-7.63815e-05
-1.1386e-05
-7.81527e-05
-1.74248e-05
-7.52525e-05
1.1749e-05
-0.000102233
-3.61027e-05
-8.58889e-05
-3.23593e-05
-0.000123659
-4.24194e-05
-5.82018e-05
-4.55252e-05
-6.02249e-05
-7.83148e-05
-6.45575e-05
-5.49203e-05
-6.14451e-05
-8.29222e-05
-4.36508e-05
-6.83465e-05
-6.05597e-05
-5.497e-05
-3.73729e-05
-4.45543e-05
-3.85825e-05
-4.69011e-05
-2.75154e-05
-2.45004e-05
-4.25646e-05
-2.82546e-05
-2.62157e-05
-2.36735e-05
-3.45922e-05
-7.17728e-06
-4.4803e-05
-5.07414e-06
-4.25666e-05
-2.60182e-05
-1.30902e-05
-8.131e-07
-7.93854e-05
-9.26114e-07
-7.89304e-05
-1.41393e-06
-7.58937e-05
-9.78632e-06
-6.97803e-05
-8.12502e-06
-7.69138e-05
3.48653e-06
-0.000113845
-1.16451e-06
-8.12378e-05
-4.51431e-05
-7.968e-05
-3.44733e-05
-6.88716e-05
-3.21152e-05
-6.25829e-05
-3.36766e-05
-6.29961e-05
-3.59175e-05
-5.92041e-05
-3.34608e-05
-4.61075e-05
-5.37683e-05
-4.02523e-05
-3.01588e-05
-6.09823e-05
-2.09737e-05
-4.77676e-05
-1.7233e-05
-3.12561e-05
-2.58089e-05
-3.39886e-05
-2.16391e-05
-3.03854e-05
-1.71247e-05
-3.91067e-05
-1.64581e-05
-4.54695e-05
-1.61973e-05
-4.28274e-05
-2.91247e-05
-1.30908e-05
-3.49253e-06
-7.58929e-05
-1.17418e-05
-7.06812e-05
-1.66267e-05
-7.10088e-05
2.08871e-05
-0.000107294
1.20661e-05
-6.80928e-05
-2.01655e-05
-8.16132e-05
-2.79233e-05
-7.34801e-05
-2.89009e-05
-7.87023e-05
-2.2545e-05
-7.52276e-05
-2.12822e-05
-6.38457e-05
-2.51644e-05
-5.91139e-05
-2.97704e-05
-5.45982e-05
-3.56181e-05
-4.02598e-05
-3.31345e-05
-4.27358e-05
-2.16527e-05
-7.24641e-05
-3.11199e-05
-3.83004e-05
-2.85604e-05
-3.38156e-05
-2.40275e-05
-3.85215e-05
-1.40525e-05
-4.03604e-05
-1.18811e-05
-4.12781e-05
-8.60968e-06
-4.87409e-05
-2.28952e-06
-4.91476e-05
-3.18313e-05
4.17115e-07
-2.08173e-05
-5.50756e-05
5.89337e-07
-9.20878e-05
1.3153e-05
-8.35724e-05
-1.84991e-06
-9.22912e-05
1.52329e-05
-8.51756e-05
4.06437e-06
-7.04447e-05
-8.86393e-06
-6.05518e-05
-1.71823e-05
-7.0384e-05
-2.86124e-05
-6.37974e-05
-3.33697e-05
-5.90884e-05
-3.42718e-05
-5.82118e-05
-3.36134e-05
-5.52565e-05
-2.84648e-05
-4.54084e-05
-2.7283e-05
-4.39177e-05
-5.18394e-05
-4.79077e-05
-2.1128e-05
-6.90119e-05
-1.54024e-05
-3.95411e-05
-2.09756e-05
-3.29483e-05
-9.76816e-06
-5.15679e-05
-1.93996e-05
-3.16466e-05
-1.90079e-05
-4.91327e-05
-1.53187e-05
-5.28368e-05
-4.47159e-05
-2.43407e-06
1.60929e-05
-7.11685e-05
3.76738e-06
-7.97623e-05
-4.74274e-06
-7.50623e-05
-1.3338e-05
-8.3696e-05
-2.09574e-05
-7.75563e-05
-7.23032e-06
-8.41718e-05
1.07379e-05
-7.85201e-05
-1.69031e-06
-5.79558e-05
-1.42234e-05
-5.12644e-05
-1.9649e-05
-5.36627e-05
-2.51723e-05
-5.26885e-05
-2.73611e-05
-5.30677e-05
-2.2539e-05
-5.02305e-05
-1.23151e-05
-5.41415e-05
-1.1848e-05
-4.83748e-05
-2.90314e-05
-5.18285e-05
-3.4025e-05
-3.45475e-05
-5.21182e-06
-6.17615e-05
-2.13284e-05
-3.54514e-05
-1.55567e-05
-3.74183e-05
-1.15642e-05
-5.31252e-05
-9.75923e-06
-5.46417e-05
-4.4555e-05
-9.92013e-06
-1.289e-06
-6.98795e-05
-2.15698e-06
-7.88943e-05
-5.98799e-07
-7.66205e-05
-5.51878e-06
-7.8776e-05
-7.08268e-06
-7.59924e-05
-1.64595e-05
-7.47949e-05
-2.33623e-05
-7.16173e-05
-1.12364e-05
-7.00816e-05
-2.30027e-05
-3.94981e-05
-3.69276e-05
-3.97378e-05
-2.6433e-05
-6.31832e-05
-1.20961e-05
-6.74045e-05
2.78742e-06
-6.5114e-05
-6.20797e-06
-4.51462e-05
-1.39311e-05
-4.06516e-05
-2.08966e-05
-4.48631e-05
6.83546e-07
-5.61277e-05
-1.89621e-05
-4.21158e-05
-1.36988e-05
-4.07147e-05
-1.11522e-05
-3.99648e-05
-1.16027e-05
-5.26747e-05
-1.11644e-05
-5.508e-05
-4.91615e-05
-6.55796e-06
2.00439e-06
-7.18839e-05
9.94453e-08
-7.69894e-05
-2.26237e-06
-7.42587e-05
-5.36501e-06
-7.56733e-05
-7.21233e-06
-7.4145e-05
-7.15963e-06
-7.48476e-05
-7.73779e-06
-7.10391e-05
-1.0112e-05
-6.77074e-05
-1.31317e-05
-3.64784e-05
-1.64116e-05
-3.64579e-05
-2.14282e-05
-5.81666e-05
-2.60431e-05
-6.27897e-05
-2.66139e-05
-6.45432e-05
-9.5021e-06
-6.2258e-05
-1.04093e-05
-3.97444e-05
-5.59324e-06
-4.96791e-05
-2.13639e-05
-4.0357e-05
-4.25798e-06
-5.92218e-05
-6.62582e-06
-3.83469e-05
-1.02604e-05
-3.63302e-05
-6.0718e-06
-5.68634e-05
-8.86744e-06
-5.22844e-05
-5.08187e-05
-7.2102e-06
-4.39442e-07
-7.14444e-05
-1.14946e-06
-7.62794e-05
-1.52652e-06
-7.38816e-05
-3.80726e-06
-7.33926e-05
-5.60459e-06
-7.23477e-05
-8.54051e-06
-7.19117e-05
-1.17454e-05
-6.78343e-05
-1.20311e-05
-6.74217e-05
-1.44202e-05
-3.40893e-05
-1.61701e-05
-3.47079e-05
-1.53021e-05
-5.90346e-05
-1.69543e-05
-6.11374e-05
-1.5896e-05
-6.56015e-05
-1.58915e-05
-6.22624e-05
-1.84098e-05
-3.72261e-05
-8.36395e-06
-5.9725e-05
-1.2788e-05
-3.5933e-05
-2.04148e-05
-5.15949e-05
-3.81691e-06
-5.49448e-05
1.26802e-05
-5.28273e-05
-5.85723e-06
-3.8326e-05
-1.1196e-05
-4.69456e-05
-5.47261e-05
-7.28856e-06
5.9867e-07
-7.20431e-05
2.86274e-07
-7.5967e-05
-2.44501e-09
-7.35929e-05
-1.32459e-06
-7.20705e-05
-2.738e-06
-7.09343e-05
-5.55154e-06
-6.90982e-05
-7.74271e-06
-6.56431e-05
-6.92913e-06
-6.82353e-05
-3.35941e-06
-3.7659e-05
-8.48173e-07
-3.72192e-05
-1.99845e-05
-3.98983e-05
-1.49662e-05
-6.61557e-05
-1.50642e-05
-6.55036e-05
-1.29478e-05
-6.43788e-05
4.05873e-06
-5.42326e-05
-8.13936e-06
-4.75269e-05
3.07709e-06
-4.71494e-05
-7.18602e-06
-4.13318e-05
-7.64016e-06
-5.44907e-05
-2.63923e-06
-5.78282e-05
-7.426e-06
-3.35392e-05
-5.69499e-06
-4.86766e-05
-5.07616e-05
-9.65947e-06
2.82352e-07
-7.23254e-05
-9.67547e-08
-7.55879e-05
-8.94699e-07
-7.2795e-05
-3.25214e-06
-6.9713e-05
-5.59491e-06
-6.85915e-05
-5.99313e-06
-6.87e-05
-8.54827e-06
-6.30879e-05
-9.33138e-06
-6.74522e-05
-1.01005e-05
-3.68899e-05
-9.23559e-06
-3.80841e-05
-1.0106e-05
-3.90279e-05
-9.12028e-06
-6.71414e-05
-9.42378e-06
-6.52001e-05
-8.57105e-06
-6.52315e-05
-5.91265e-06
-5.6891e-05
-1.0289e-05
-4.31506e-05
-9.28635e-06
-4.8152e-05
-8.23732e-06
-4.23808e-05
-1.01804e-05
-5.25476e-05
-3.74564e-06
-6.4263e-05
9.85561e-06
-4.71404e-05
-3.05335e-06
-3.57677e-05
-4.63353e-05
-7.47962e-06
8.36538e-07
-7.3162e-05
1.11993e-06
-7.58713e-05
2.30651e-06
-7.39815e-05
4.64625e-06
-7.20528e-05
1.2089e-05
-7.60343e-05
-7.25027e-06
-4.93607e-05
-2.55802e-05
-4.4758e-05
-1.86319e-05
-7.44006e-05
-1.28446e-05
-4.26772e-05
-9.22403e-06
-4.17046e-05
-7.09689e-06
-4.1155e-05
-9.6373e-06
-6.4601e-05
-1.1021e-05
-6.38163e-05
-1.2569e-05
-6.36836e-05
-1.30214e-05
-5.64386e-05
5.98737e-07
-5.67707e-05
5.91517e-06
-5.34685e-05
-1.84628e-06
-3.46193e-05
2.57053e-06
-5.69644e-05
5.70312e-07
-6.22628e-05
-9.62524e-06
-3.69449e-05
-1.13747e-05
-3.40182e-05
-5.15919e-05
-6.11814e-06
1.10949e-07
-7.32729e-05
1.21163e-08
-7.57724e-05
-9.98953e-08
-7.38695e-05
-2.11497e-06
-7.00377e-05
-4.90912e-06
-7.32401e-05
-5.12001e-06
-4.91498e-05
-6.15039e-06
-4.37276e-05
-5.47901e-06
-7.5072e-05
-4.37e-06
-4.37862e-05
-5.01904e-06
-4.10556e-05
-4.04437e-06
-4.21297e-05
-6.81098e-06
-6.18344e-05
-7.3752e-06
-6.32521e-05
-7.36874e-06
-6.36901e-05
-3.68962e-06
-6.01177e-05
-2.65348e-06
-5.78069e-05
-1.6042e-05
-4.008e-05
2.47769e-07
-5.09091e-05
-1.36984e-05
-4.30183e-05
-2.32873e-05
-5.26738e-05
-1.60696e-06
-5.86252e-05
1.28201e-05
-4.84452e-05
-3.10794e-05
-7.69246e-06
1.69753e-07
-7.34427e-05
4.75782e-07
-7.60785e-05
9.69292e-07
-7.4363e-05
-1.86783e-08
-6.90497e-05
-1.13087e-06
-7.21279e-05
-8.72346e-06
-4.15572e-05
-1.12158e-05
-4.12352e-05
-2.36794e-05
-6.26084e-05
-6.54556e-06
-6.092e-05
8.20494e-06
-5.58061e-05
1.41711e-06
-3.53419e-05
-3.61062e-06
-5.68067e-05
-6.78117e-06
-6.00815e-05
-8.53653e-06
-6.19347e-05
-9.37891e-06
-5.92753e-05
-1.14437e-05
-5.57421e-05
6.32894e-06
-5.78526e-05
6.13835e-06
-5.07185e-05
5.34451e-07
-3.74144e-05
9.79284e-07
-5.31187e-05
-6.71857e-07
-5.69741e-05
-1.5369e-05
-3.37481e-05
-3.95136e-05
-6.93473e-06
-1.33085e-07
-7.33096e-05
-3.92677e-07
-7.58189e-05
-6.96765e-07
-7.4059e-05
-4.25995e-06
-6.54865e-05
-1.27892e-05
-6.35987e-05
5.80767e-06
-6.01541e-05
2.04386e-06
-3.74714e-05
-1.0167e-06
-5.95478e-05
-6.97099e-07
-6.12396e-05
2.29923e-06
-5.88024e-05
4.27734e-06
-3.732e-05
-1.44438e-05
-3.80855e-05
-9.53277e-06
-6.49926e-05
-6.61201e-06
-6.48555e-05
-4.66503e-06
-6.12223e-05
-3.2644e-06
-5.71427e-05
-6.03016e-06
-5.50868e-05
-7.13357e-07
-5.60353e-05
1.47347e-05
-5.28624e-05
-2.97154e-06
-3.54124e-05
-2.30527e-05
-3.68928e-05
-1.87275e-06
-5.49281e-05
-3.72009e-05
-4.18546e-06
-8.32451e-08
-7.32264e-05
-4.88015e-07
-7.54141e-05
-4.36374e-08
-7.45033e-05
-1.13308e-06
-6.43971e-05
-7.71936e-07
-6.39598e-05
3.77004e-06
-6.46961e-05
3.24075e-06
-3.69421e-05
-1.63563e-05
-3.99508e-05
-7.99332e-06
-6.96026e-05
-4.06706e-06
-6.27286e-05
-9.94353e-07
-4.03927e-05
-2.2634e-06
-3.68165e-05
-5.86523e-06
-6.13907e-05
-5.99103e-06
-6.47297e-05
-5.52116e-06
-6.16922e-05
-4.03484e-06
-5.86291e-05
-2.62417e-06
-5.64975e-05
-1.98158e-06
-5.66779e-05
-4.88743e-06
-4.99566e-05
-2.59298e-06
-3.77069e-05
9.91658e-06
-4.94024e-05
-1.13171e-05
-3.36944e-05
-5.39932e-05
5.47519e-06
1.94433e-07
-7.34208e-05
7.48617e-07
-7.59683e-05
3.5888e-06
-7.73435e-05
6.00222e-06
-6.68105e-05
-1.31351e-05
-4.48225e-05
-5.22542e-06
-7.26058e-05
-2.28321e-06
-3.98843e-05
-3.90522e-06
-3.83288e-05
-2.10357e-06
-7.14042e-05
-3.59232e-06
-6.12399e-05
-4.26203e-06
-3.9723e-05
-6.42974e-06
-3.46488e-05
-5.69037e-06
-6.21301e-05
-5.25462e-06
-6.51654e-05
-3.5114e-06
-6.34354e-05
-2.56247e-06
-5.9578e-05
-1.96058e-06
-5.70994e-05
-6.47505e-07
-5.7991e-05
4.14787e-06
-5.47519e-05
1.09216e-06
-3.46512e-05
3.10115e-06
-5.14114e-05
5.8154e-06
-3.64087e-05
-3.81921e-05
-9.98574e-06
-6.68599e-07
-7.27522e-05
-6.02035e-07
-7.60348e-05
-7.20204e-07
-7.72254e-05
-2.2685e-07
-6.73038e-05
-3.39925e-06
-4.16501e-05
-1.76518e-06