/*--------------------------------*- C++ -*----------------------------------*\
| =========                 |                                                 |
| \\      /  F ield         | foam-extend: Open Source CFD                    |
|  \\    /   O peration     | Version:     4.1                                |
|   \\  /    A nd           | Web:         http://www.foam-extend.org         |
|    \\/     M anipulation  |                                                 |
\*---------------------------------------------------------------------------*/
FoamFile
{
    version     2.0;
    format      ascii;
    class       volScalarField;
    location    "0.45";
    object      psi;
}
// * * * * * * * * * * * * * * * * * * * * * * * * * * * * * * * * * * * * * //

dimensions      [1 -1 -2 0 0 0 0];

internalField   nonuniform List<scalar> 
2268
(
-1.67598e-09
-1.31001e-07
-6.19641e-07
-6.02535e-05
-0.00281518
-0.00621861
-0.00231284
-0.0445598
-0.031898
-0.744605
-0.40681
-0.288346
-0.158762
-0.0892682
-0.0407056
-0.0163691
-0.0170717
-0.0767036
-0.509143
-7.55595
-29.0811
-670.751
-684.933
-1.27355e-07
-8.21852e-06
-2.66749e-05
-0.00218033
-0.0711758
-0.136667
-0.0576082
-0.615841
-0.455792
-4.41767
-2.66805
-2.70555
-2.05236
-1.20776
-0.420033
-0.16602
-0.0847686
-1.29125
-2.29007
-6.81782
-21.8586
-210.588
-493.508
-6.09883e-06
-0.000266917
-0.000586957
-0.038566
-0.837328
-1.43908
-0.738474
-4.15445
-3.14625
-13.5967
-36.674
-32.5757
-22.8387
-9.46144
-2.21703
-0.580592
-0.724857
-3.64855
-9.34089
-27.3762
-274.884
-449.64
-675.582
-0.000185375
-0.00590297
-0.00893655
-0.445851
-6.27277
-9.23744
-5.84186
-20.198
-15.7766
-51.5926
-130.254
-189.464
-128.468
-55.8897
-24.8812
-10.0122
-5.61749
-5.59984
-6.37599
-11.1808
-191.623
-603.716
-839.86
-0.00379981
-0.0987699
-0.111188
-3.72387
-32.0776
-40.8801
-33.5241
-78.8098
-72.1122
-171.709
-443.913
-450.156
-299.287
-251.029
-143.231
-69.2326
-38.8824
-25.2131
-21.6866
-22.1257
-197.883
-766.915
-990.61
-0.0591116
-1.26082
-1.16745
-23.4523
-120.942
-134.643
-186.757
-236.573
-350.658
-510.452
-765.795
-841.724
-785.592
-620.458
-481.008
-283.914
-215.177
-162.142
-101.451
-50.1521
-190.612
-886.825
-1163.37
-0.684188
-12.6346
-10.2518
-116.846
-365.522
-385.531
-606.799
-712.548
-1088.63
-1295.42
-1321.13
-1873.81
-1710.14
-961.37
-1217.2
-886.35
-736.121
-621.785
-491.527
-155.326
-220.873
-1076.02
-1286.24
-6.4212
-92.8459
-70.0225
-471.923
-912.151
-925.788
-1389.16
-1566.4
-1982.71
-2142.31
-2035.37
-2208.27
-2101.8
-2045.58
-1960.63
-1721.1
-1935.37
-1888.9
-1470.1
-381.438
-257.764
-1006.29
-1500.32
472.928
966.685
1593.14
2288.87
2750.8
2857.72
2802.78
2675.54
2439.47
2418.45
2413.3
2115.62
1853.32
1587.02
1587.26
1799.36
2720.08
2590.51
2637.02
367.221
365.151
384.744
655.447
1111.81
1665.08
2247.4
2856.79
2642.54
2582.01
2632.98
2243.43
1706.37
233.116
756.182
1522.71
2204.89
2803.4
2856.85
269.738
135.435
70.5941
103.592
328.654
740.136
1794.35
2829.06
2811.14
2673.91
2317.28
2780.9
707.075
-1718.56
-1435.08
267.548
1599.74
2625.9
2755.96
233.265
87.207
48.3625
48.6702
80.1191
115.064
683.962
2661.56
2823.01
2633.03
141.326
1879.9
-1090.24
-2192.65
-2261.05
-1616.48
740.651
1951.05
2580.44
212.751
93.0967
86.9586
80.3543
93.3442
167.037
1216.29
2806.16
2259
1754.84
153.092
-668.171
-2060.72
-2494.15
-2508.43
-2289.71
-631.193
1210.35
2458.53
191.64
174.978
249.529
384.875
238.068
414.364
1781.25
2582.3
2835.65
2455.67
354.415
-1215.14
-2363.6
-2576.62
-2580.71
-2466.08
-1491.77
454.831
2281.64
158.751
374.197
857.539
1459.3
564.697
331.032
734.224
1864.56
768.672
1798.95
-587.509
-2040.61
-2529.81
-2600.73
-2597.43
-2517.67
-1919.1
-132.602
2113.03
107.507
1678.17
2395.31
2821.61
1938.86
1857.17
2056.57
2813.39
-2409.47
-1810.7
-2415.3
-2646.46
-2607.57
-2593.78
-2588.48
-2517.36
-2126.12
-737.321
1873.53
-67.7954
-725.857
-509.032
-1889.08
-2183.11
-2194.04
-2570.22
-2776.14
-2857.5
-2857.65
-2839.46
-2786.47
-2846.78
-2854.24
-2857.72
-2828.93
-2650.96
-2508.26
-2659.21
-2761.99
-979.314
-1023
-1453.55
-532.787
-2577.19
-2108.71
-1867.17
-2484
-2418.63
-1382.08
-851.471
-407.327
-715.878
-1750.08
-2072.98
-1922.3
-1678.94
-1255.51
-675.233
24.3928
274.495
-164.813
-2127.73
-2235.66
-1147.33
-1397.55
-2374.84
-1896.89
-1783.36
2598.83
1548.22
1669.96
2431.32
2519.18
2731.75
2673.23
2274.5
1214.25
-339.109
-1168.14
-1130.01
-720.312
345.463
1234.18
1214.87
149.772
-2857.69
-1766.18
-1275.08
-2483.11
1900.1
2527.11
2319.76
2810.85
2780.64
2699.72
2582.12
2370.95
2105.98
2237.06
2646.54
2693.36
70.2963
-669.314
-229.909
696.532
1670.41
1694.95
806.072
-2156.51
-2616.36
-1685.77
-2435.03
2774.62
2621.44
1586.77
1750.74
1839.74
2082.57
1671.66
1635.45
1252.35
1251.31
1668.63
2496.04
2650.32
629.08
436.893
1406.59
2266.61
2190.37
1966.6
1051.4
-1211.06
-2726.92
-449.016
2853.6
1961.72
1049.2
887.609
1156.58
1512.94
1154.26
1158.8
868.591
877.861
1046.57
1758.42
2857.45
1811.77
2254.57
2843.64
2639.19
2649.26
2843.57
2621.32
1304.68
-699.369
2768.31
2128.41
1352.36
700.352
567.462
800.555
972.435
815.649
749.169
532.406
651.511
677.077
1326.97
2394.94
2824.39
2385.76
2204.85
1688.96
744.589
1549.16
2398.53
2852.56
1889.83
964.009
846.733
598.529
336.877
344.286
471.127
613.911
541.509
365.526
262.14
461.596
318.545
635.638
940.198
1391.32
665.702
2414.14
639.849
180.629
270.058
1132.93
2484.54
2787.64
494.681
300.698
175.427
123.771
133.957
247.153
292.973
266.968
126.592
128.472
373.502
148.867
266.857
340.643
553.298
209.963
476.063
166.69
144.961
149.179
268.012
840.71
987.767
312.591
129.181
83.762
60.396
39.9512
86.4202
101.371
76.3113
36.0701
87.3513
359.179
107.518
87.8312
114.134
143.371
44.6433
43.4161
58.6143
120.054
105.478
165.728
283.595
324.26
192.504
58.4555
38.3218
26.2641
9.79583
21.541
22.1328
10.592
13.8567
82.9148
385.415
98.731
20.015
26.3765
44.8982
34.6491
53.6486
58.6474
36.5615
42.163
61.5604
91.6445
179.17
111.283
31.9214
16.8601
8.41364
4.04475
3.09161
2.53767
1.32442
11.9442
104.411
467.331
174.556
11.0395
8.9013
12.7427
16.5678
21.2352
25.9163
24.3827
26.0962
20.3467
28.8708
52.2243
55.0807
15.7808
7.49872
1.59901
0.996249
0.317339
0.222606
0.390244
12.395
124.896
599.073
249.009
17.0989
2.61084
1.69405
4.62415
12.9321
17.1161
15.8265
10.675
2.95199
1.24401
1.10987
23.6565
6.10876
3.04709
0.236896
0.0474075
0.0371112
0.0272117
0.113919
9.72936
125.366
709.68
724.486
202.585
7.43252
0.687528
1.34683
5.63312
8.23091
8.99088
5.80341
1.3233
0.164691
0.0663345
6.17708
0.612927
1.01363
0.0261517
0.00109466
0.00455735
0.00608738
0.0248343
3.70937
91.273
731.126
1339.94
493.35
24.427
1.80163
0.488335
1.51294
1.69045
2.49105
2.6656
0.434806
0.0719349
0.0229745
1.75286
0.227544
0.341445
0.00348431
0.000169459
0.00146671
0.00205171
0.00859046
5.87249
102.531
589.365
1784.99
579.207
55.7455
3.04361
0.069231
0.0827556
0.109576
0.17151
0.226825
0.0241623
0.00843277
0.0164239
0.268095
0.0572811
0.0996258
0.000520898
5.68898e-05
0.00035947
0.000346485
0.00320986
0.56078
15.6675
165.269
1421.25
146.102
19.6629
0.465107
0.0103025
0.00416883
0.00299214
0.00305379
0.00301036
0.00233422
0.000542062
0.0032581
0.0247522
0.0131089
0.0275834
0.000206751
1.01117e-05
5.75335e-05
7.57612e-05
0.00198042
0.0062987
0.207432
10.5446
97.8914
1.54382
0.00608362
0.0134951
0.0026566
0.00070976
0.000348172
0.000267588
0.00028815
0.000236955
0.000102445
0.000355755
0.000150347
0.000532031
0.00675195
0.000151974
2.25385e-06
3.28157e-06
2.44098e-06
1.39453e-05
0.000130246
0.000683289
0.00231811
0.0110989
0.000413077
0.000310788
0.000400993
0.000591893
0.0002482
9.13376e-05
4.31019e-05
3.65145e-05
1.76139e-05
1.43637e-05
3.84883e-05
1.80904e-05
8.58649e-05
0.00161699
0.000109156
4.46544e-07
4.95768e-07
5.55893e-07
1.77362e-06
3.59035e-06
2.08333e-06
5.50098e-06
1.24728e-05
1.35029e-05
2.52359e-05
3.34108e-05
3.79391e-05
4.1409e-05
2.57407e-05
7.12771e-06
3.08779e-06
1.35265e-06
1.02388e-06
2.08325e-06
1.69064e-06
3.36654e-06
4.88534e-06
5.20263e-08
3.40632e-08
2.02333e-08
1.5297e-07
5.09468e-07
1.64389e-06
5.74702e-07
2.13597e-07
6.144e-07
1.02821e-06
1.50132e-06
2.05219e-06
1.92571e-06
1.98911e-06
9.88778e-07
5.95084e-07
9.41489e-08
6.19126e-08
5.14707e-08
2.28029e-07
1.71828e-07
3.56502e-08
8.69818e-08
3.11589e-09
3.14684e-09
2.85671e-09
1.89156e-08
4.63104e-08
2.11626e-07
3.24866e-07
1.5675e-08
2.36358e-09
1.01715e-08
2.00366e-08
3.79353e-08
7.71473e-08
1.3777e-07
5.62083e-08
5.14145e-08
4.66021e-09
2.91491e-09
8.76206e-09
2.69565e-08
3.17714e-08
1.99632e-09
3.87418e-10
3.08318e-10
4.52928e-10
7.3669e-10
1.0059e-09
2.96481e-10
2.75512e-10
3.03672e-10
2.49197e-10
3.31055e-10
7.53059e-10
1.22963e-09
1.44881e-09
5.66795e-09
8.64016e-09
4.56656e-09
2.81578e-09
4.44741e-10
1.4188e-10
3.26506e-10
1.91539e-09
3.80168e-09
3.31055e-10
2.78305e-10
2.80124e-10
3.81078e-10
3.42879e-10
3.61069e-10
2.67391e-10
2.19188e-10
2.37378e-10
2.32831e-10
2.27374e-10
2.81943e-10
2.8831e-10
2.75577e-10
3.73801e-10
5.01129e-10
4.42013e-10
1.98269e-10
1.0732e-10
2.00088e-11
9.36779e-11
3.44698e-10
5.01131e-10
-6.9122e-11
2.81943e-10
2.32831e-10
3.16504e-10
2.94676e-10
2.29193e-10
2.7012e-10
2.07365e-10
2.94676e-10
2.77396e-10
2.14641e-10
2.86491e-10
2.75577e-10
2.11003e-10
2.17369e-10
1.50066e-10
1.71894e-10
1.0732e-10
5.72981e-11
4.54742e-12
1.63708e-11
2.75577e-10
2.43745e-10
-2.1737e-10
2.80125e-10
2.11003e-10
2.71939e-10
2.80124e-10
2.31012e-10
2.22826e-10
2.35559e-10
2.5193e-10
2.53749e-10
2.41926e-10
2.86491e-10
3.18323e-10
2.39197e-10
2.32831e-10
2.07365e-10
1.35515e-10
1.51886e-10
1.38243e-10
1.09139e-10
4.63842e-11
2.78306e-10
2.7012e-10
-2.00999e-10
2.43745e-10
2.73758e-10
3.22871e-10
3.00133e-10
3.11957e-10
2.37378e-10
2.06455e-10
2.75577e-10
2.11003e-10
2.19188e-10
3.065e-10
3.065e-10
2.25555e-10
2.5193e-10
2.43745e-10
1.46429e-10
8.73114e-11
1.2551e-10
1.38243e-10
1.81898e-11
1.92813e-10
2.67392e-10
-2.73758e-10
2.51021e-10
2.57387e-10
3.11957e-10
3.39242e-10
3.4288e-10
2.14641e-10
1.92813e-10
2.5193e-10
2.68301e-10
2.90129e-10
3.38332e-10
2.71939e-10
2.65572e-10
2.45564e-10
1.8008e-10
1.6189e-10
1.09139e-10
1.31877e-10
1.60071e-10
1.18233e-11
2.00998e-10
3.16504e-10
-2.24646e-10
2.91948e-10
2.25555e-10
2.96495e-10
3.34694e-10
3.21052e-10
2.09184e-10
2.12822e-10
3.01952e-10
2.04636e-10
2.80124e-10
3.12866e-10
2.78305e-10
3.10138e-10
2.53749e-10
2.83762e-10
1.13687e-10
1.437e-10
6.27551e-11
5.27507e-11
2.81943e-11
2.49202e-10
3.04681e-10
-2.3374e-10
3.065e-10
2.49202e-10
2.80124e-10
2.94676e-10
3.18323e-10
2.35559e-10
1.8008e-10
2.43745e-10
2.57387e-10
2.25555e-10
2.77396e-10
3.44699e-10
2.53749e-10
2.85581e-10
2.91948e-10
2.35559e-10
1.94632e-10
7.27595e-11
4.63842e-11
2.00088e-11
1.74623e-10
2.63754e-10
-2.21008e-10
3.08319e-10
2.09184e-10
2.43745e-10
1.96451e-10
3.21052e-10
2.5193e-10
2.14641e-10
2.68301e-10
2.73758e-10
2.43745e-10
3.04681e-10
3.32875e-10
2.86491e-10
2.77396e-10
3.44699e-10
2.60115e-10
2.41016e-10
1.15506e-10
5.45697e-11
-1.00045e-11
1.30058e-10
2.3374e-10
-1.84628e-10
2.31012e-10
2.14641e-10
2.12822e-10
2.00998e-10
3.10138e-10
3.18323e-10
2.21007e-10
2.73758e-10
2.67391e-10
2.78305e-10
2.59206e-10
2.93767e-10
3.08319e-10
3.065e-10
3.31056e-10
2.93767e-10
1.96451e-10
8.0945e-11
4.82032e-11
1.81899e-11
1.51886e-10
1.45519e-10
-2.11003e-10
2.07365e-10
2.41926e-10
2.55568e-10
1.89175e-10
3.31056e-10
3.16504e-10
1.9827e-10
3.4288e-10
2.3374e-10
2.47383e-10
2.3374e-10
2.8831e-10
2.8831e-10
2.94676e-10
2.63753e-10
2.60115e-10
2.04636e-10
1.40062e-10
3.45608e-11
-1.00045e-11
2.37378e-10
1.21872e-10
-1.84628e-10
1.64619e-10
1.6189e-10
2.04636e-10
1.30058e-10
2.39197e-10
2.67391e-10
1.56433e-10
3.21052e-10
2.17369e-10
2.86491e-10
2.11003e-10
2.49202e-10
2.21007e-10
2.86491e-10
2.45564e-10
2.71939e-10
2.07365e-10
1.2551e-10
1.45519e-11
-1.00045e-11
2.83763e-10
8.27641e-11
-1.48248e-10
9.3678e-11
1.53705e-10
1.66438e-10
2.02817e-10
3.2469e-10
1.86446e-10
1.53705e-10
2.11003e-10
2.47383e-10
2.7012e-10
2.09184e-10
1.40062e-10
1.53705e-10
2.68301e-10
2.02817e-10
3.08319e-10
2.41926e-10
1.60071e-10
8.36735e-11
1.36423e-11
2.41016e-10
8.1855e-12
-2.27374e-10
9.7316e-11
7.9126e-11
1.86446e-10
2.60116e-10
1.68256e-10
1.00954e-10
1.96451e-10
2.00998e-10
2.12822e-10
1.90994e-10
1.33696e-10
4.45652e-11
8.0945e-11
2.59206e-10
1.31877e-10
3.10138e-10
1.80989e-10
1.86446e-10
7.09406e-11
-9.70313e-17
1.99179e-10
1.36425e-11
-1.94632e-10
1.35515e-10
6.09361e-11
1.88265e-10
2.12822e-10
1.40062e-10
2.63753e-11
1.46429e-10
1.15506e-10
1.01863e-10
1.01863e-10
8.36735e-11
4.09272e-11
3.63797e-11
1.35515e-10
9.09494e-11
1.60071e-10
1.54614e-10
1.76442e-10
5.63886e-11
3.00132e-11
2.81944e-10
4.00178e-11
-8.91306e-11
2.02817e-10
1.48248e-10
1.15506e-10
1.80989e-10
9.36779e-11
-3.63806e-12
1.03682e-10
2.00088e-11
8.54925e-11
8.2764e-11
6.27551e-11
8.0945e-11
3.09228e-11
1.15506e-10
1.45518e-11
8.73115e-11
6.73026e-11
9.91349e-11
7.73071e-11
3.27417e-11
2.3374e-10
-3.63798e-12
-3.63799e-11
2.91948e-10
1.72804e-10
1.0732e-10
1.74623e-10
1.20053e-10
1.45518e-11
1.23691e-10
5.27507e-11
9.91349e-11
1.00954e-10
4.82031e-11
1.88266e-10
4.82031e-11
1.21872e-10
2.81943e-11
9.3678e-11
7.7307e-11
1.2551e-10
1.20053e-10
3.27417e-11
1.27329e-10
-1.00044e-11
-3.00135e-11
4.10182e-10
2.1555e-10
2.12822e-10
3.065e-10
1.31877e-10
7.45785e-11
1.64619e-10
5.91171e-11
1.50067e-10
4.82032e-11
7.7307e-11
1.74623e-10
1.6189e-10
1.27329e-10
1.11868e-10
1.82808e-10
1.11868e-10
1.10049e-10
1.74623e-10
1.15506e-10
1.00954e-10
-6.36647e-12
6.0936e-11
4.58385e-10
3.44699e-10
2.80124e-10
3.44699e-10
1.51886e-10
8.91304e-11
1.45519e-10
1.09139e-10
1.35515e-10
6.63931e-11
4.91126e-11
2.59206e-10
1.66437e-10
1.84627e-10
1.89175e-10
2.77396e-10
1.33696e-10
1.53705e-10
1.30058e-10
3.36513e-10
5.45696e-11
-6.27552e-11
1.31877e-10
4.81123e-10
3.9563e-10
3.65617e-10
3.97449e-10
1.437e-10
1.92813e-10
1.68257e-10
2.04636e-10
2.00998e-10
1.66438e-10
1.88265e-10
3.04681e-10
2.29193e-10
2.22826e-10
2.65572e-10
3.28328e-10
2.39197e-10
2.83762e-10
2.5193e-10
4.3201e-10
-1.36426e-11
-1728.19
-1897.08
-2791.62
2256
-1642.29
-1796.66
-2290.96
-2638.85
-1278.37
-1387.85
-1445.63
-1561.3
-1420.78
-1333.53
-1311.44
-1316.47
-2674.72
-2418.89
-2312.99
-2282.71
-2078.8
-2275.77
-2254.72
-2263.71
1036.65
1009.36
1167.43
1593.55
2857.1
2856.68
2839.94
2729.54
1439.47
1568.45
1420.01
1159.98
470.458
520.06
514.477
588.838
540.648
565.49
424.865
227.437
82.5706
36.9364
23.8741
22.4044
1.92666
0.615566
0.411703
0.589669
0.0543018
0.0830866
0.0799245
0.0913849
0.00718135
0.0105493
0.0140876
0.0250201
0.00184352
0.00172783
0.0029498
0.005446
0.000669153
0.000526634
0.000555205
0.00116821
0.000136918
0.000118986
0.000123812
0.000232761
1.75295e-05
2.26574e-05
3.16795e-05
2.94111e-05
2.13176e-06
2.37791e-06
3.68193e-06
2.75039e-06
2.74271e-07
1.58494e-07
3.23626e-07
3.41573e-07
2.4569e-08
2.29665e-08
4.21013e-08
5.83204e-08
2.35558e-09
4.0145e-09
7.16954e-09
1.00099e-08
2.53748e-10
4.07452e-10
6.61201e-10
8.44008e-10
1.66437e-10
1.92813e-10
1.51885e-10
1.33695e-10
1.36424e-10
1.20053e-10
8.27639e-11
1.0732e-10
1.2551e-10
1.20053e-10
9.73159e-11
1.09139e-10
8.54923e-11
1.17325e-10
1.35515e-10
1.36424e-10
9.09494e-11
7.5488e-11
9.27685e-11
4.00176e-11
8.54924e-11
1.01863e-10
1.15506e-10
3.45606e-11
5.91171e-11
3.45606e-11
1.03683e-10
4.82031e-11
6.73025e-11
6.45741e-11
6.27551e-11
6.09361e-11
4.00176e-11
3.63797e-11
7.27597e-11
4.00177e-11
1.09139e-10
1.36422e-11
6.27552e-11
8.27641e-11
-1.36427e-11
-2.63756e-11
1.31877e-10
1.13687e-10
-3.63807e-12
-6.91219e-11
8.73118e-11
6.27551e-11
2.63753e-11
-6.63934e-11
1.6371e-11
2.81944e-11
4.00177e-11
-5.27509e-11
1.00045e-11
2.27374e-11
4.09272e-11
-1.36426e-11
2.81942e-11
1.28239e-10
1.13687e-10
9.73159e-11
1.21872e-10
1.99179e-10
9.27685e-11
4.6384e-11
1.72804e-10
2.35559e-10
1.0914e-10
-8.54928e-11
-6.63932e-11
-2.63756e-11
2358.61
2727.49
2783.89
-2359.79
2664.61
2788.96
1538.23
-54.2134
-2624.71
-2853.25
-2850.32
-2810.59
-2599.23
-2408.49
-2418.8
-2380.94
-2040.57
-1054.67
1517.08
-2563.13
-2761.66
-2738.71
-2764.62
-2855.01
-2369.54
-2668.74
-2856.87
-2713.8
-2728.79
-2820.59
-2815.85
-1650.33
-884.384
-1242.78
-1543.89
-1252.85
-639.222
1360.09
-1562.74
-1563.88
-1620.66
-1571.9
-1595.81
-1644.57
-1715.16
-1897.62
-2213.33
-2758.57
-2598.55
5.41567
1713.32
1999.73
1868.61
1126.33
-59.7893
-221.391
1049.4
-1510.83
-2073.81
-2210.57
-2101.26
-2115.85
-2142.05
-2271.34
-2582.51
-2706.57
-1817.27
75.5711
2687.28
2857.7
2840.04
2694.87
1617.55
474.86
31.0623
1004.01
-2771.83
-2589.93
-2837.94
-2747.13
-2687.97
-2645.3
-2608.52
-2212.48
704.565
2813.52
2529.08
2308.58
2333.32
2663.29
2766.39
2355.78
1827.96
433.112
1086.75
-1698.04
287.482
1165.76
2289.81
2276.18
1383.02
577.691
771.989
2375.98
2653.17
1562.35
1368.39
1426.32
1438.54
1542.89
2849.9
2842.51
1069.87
1232.96
2501.65
2848.89
2667.43
2622.77
2744.84
2787.03
2479.72
2547.12
2843.77
1855.25
794.381
587.736
598.05
497.398
592.987
1948.01
2649.27
1490.88
1401.58
2141.91
1786.98
2051.27
2115.27
2331.08
2657.41
2853.33
2834.18
2198.79
935.06
317.262
179.478
200.721
354.272
397.051
927.593
2461.79
1789.46
1571.98
923.435
1021.23
1684.9
1526.53
1690.17
2566
2688.09
2347.11
979.779
216.897
67.6586
49.4486
58.6604
146.713
231.553
721.562
2234.95
2195.74
1746.25
747.743
773.541
1361.14
1311.83
853.618
1417.68
2054.09
1905.67
1077.67
206.669
29.8707
20.2876
29.7912
96.3315
211.316
627.659
1750.19
2697.45
1933.58
144.922
81.2085
330.819
374.054
147.267
182.821
711.303
773.665
478.483
118.861
20.2885
10.2974
16.0462
61.5416
217.774
577.841
1372.72
2843.15
2128.38
9.02343
4.07568
6.15534
37.9018
14.0537
39.4846
179.282
181.308
81.2613
24.4721
6.2861
5.85663
7.29462
19.0401
169.569
495.799
1181.18
2631.3
2311.23
0.314283
0.38278
0.587306
1.70194
2.48694
6.64726
21.9224
9.53986
7.52471
5.589
7.37404
19.5714
32.9936
38.1833
109.062
374.792
1033.03
2352.37
2471.54
0.0938249
0.105387
0.107566
0.118682
0.450372
0.632635
1.32034
1.38347
3.04194
5.81321
11.8315
29.2561
57.6702
52.3254
87.0822
291.988
894.723
2045.8
2612.29
0.0247654
0.0253905
0.0363118
0.050898
0.146853
0.233918
0.536646
1.39055
4.10556
7.55967
14.5988
33.6554
67.2277
60.0098
78.655
233.045
727.279
1592.81
2741.46
0.00641882
0.00825658
0.0194557
0.0290977
0.0897533
0.110934
0.273914
0.519854
1.08683
4.05855
11.5659
30.6465
81.0242
69.7595
77.1251
182.263
548.053
1045.35
2831.58
0.00212606
0.00375668
0.00927799
0.0116478
0.0346738
0.024698
0.0609852
0.158463
0.34799
1.97689
4.78697
12.9033
69.235
81.2878
78.2594
134.822
396.66
728.75
2857.2
0.000506553
0.000761707
0.00244464
0.0025
0.00625427
0.00755104
0.0185974
0.079542
0.179462
0.524056
1.11735
2.19504
22.3727
78.9274
77.6457
107.364
281.181
477.814
2810.72
0.000100583
0.000221329
0.000232232
0.000329747
0.00166978
0.00393269
0.0127558
0.0565942
0.0897017
0.217846
0.489962
0.677607
10.3657
60.6768
76.874
87.0218
191.737
234.322
2675.62
3.80768e-06
1.24521e-05
2.81344e-05
9.25665e-05
0.000472341
0.00199533
0.00639378
0.0199791
0.0359018
0.0766233
0.156759
0.23434
1.80538
24.219
70.9793
76.0596
138.769
115.26
2460.02
6.90179e-07
1.79021e-06
6.21305e-06
1.57825e-05
6.50218e-05
0.000675606
0.00283773
0.00602731
0.0131318
0.0260579
0.063392
0.135052
0.759006
6.31304
47.9735
71.1486
105.72
83.9481
2203.76
9.23017e-08
1.66816e-07
1.09293e-06
5.2866e-06
2.38577e-05
8.02504e-05
0.000275718
0.00100516
0.00434652
0.00918761
0.0225753
0.055096
0.220024
1.36445
20.5686
68.5477
85.8243
67.4226
1980.48
1.12331e-08
3.88672e-08
2.27394e-07
7.96435e-07
5.50791e-06
2.02153e-05
4.77453e-05
0.000226237
0.000940048
0.00171455
0.00573454
0.0317352
0.258295
1.37515
9.74758
62.7126
75.0656
55.4146
1772.32
1.47702e-09
8.42464e-09
4.12855e-08
1.06844e-07
5.99268e-07
2.49034e-06
6.38253e-06
3.66019e-05
0.000152185
0.000322058
0.00192142
0.0206071
0.189558
1.09275
5.4548
41.282
66.7602
44.8034
1600.75
2.96495e-10
9.19496e-10
3.7753e-09
2.47418e-08
1.67482e-07
6.14918e-07
1.86286e-06
8.52956e-06
4.1032e-05
0.000222848
0.00249467
0.0153916
0.0639496
0.550132
2.9011
13.5493
55.5833
34.645
1431.34
1.11868e-10
3.46517e-10
6.87576e-10
3.84806e-09
2.42707e-08
1.30196e-07
8.12113e-07
4.26266e-06
2.35913e-05
0.000486418
0.0123626
0.0641935
0.119102
0.250465
1.74112
5.73392
45.6827
27.3063
1286.81
1.46429e-10
2.32831e-10
2.27373e-10
9.57696e-10
5.78165e-09
3.26472e-08
2.2437e-07
3.37036e-06
5.66273e-05
0.00110141
0.0489226
0.273278
1.25188
0.505897
0.9788
2.58616
33.0585
22.2104
1162.88
1.2551e-10
2.00998e-10
1.56433e-10
2.35559e-10
8.5765e-10
8.15722e-09
1.25513e-07
4.08935e-06
0.000120464
0.00241243
0.0862879
0.542487
2.19238
4.3325
2.18307
2.6824
23.0285
18.3807
1028.71
1.45519e-10
2.3374e-10
2.07365e-10
1.80989e-10
3.64706e-10
5.49969e-09
1.20977e-07
7.76433e-06
0.000240358
0.00365709
0.0835082
0.617794
2.72604
13.6965
5.92952
3.69936
17.5967
16.1306
922.289
1.01863e-10
1.84627e-10
1.48248e-10
1.6189e-10
1.50066e-10
1.79076e-09
1.27479e-07
8.56605e-06
0.000244685
0.00700814
0.0615755
0.362255
2.1492
14.8799
12.7418
5.19494
13.2176
14.9486
832.814
1.31877e-10
1.8008e-10
1.92813e-10
1.60071e-10
6.73021e-11
1.59432e-09
7.84623e-08
2.89741e-06
8.23171e-05
0.00183121
0.0324974
0.457687
3.49504
18.1362
20.4901
12.5145
13.2337
15.0075
738.018
9.36779e-11
2.14641e-10
1.48248e-10
1.6189e-10
1.58251e-10
3.10134e-09
1.47538e-07
4.99431e-06
0.000141609
0.00208575
0.0408277
0.83616
6.7415
17.9122
24.6842
18.3507
13.7856
21.2648
668.381
8.36735e-11
2.31012e-10
6.6393e-11
1.13687e-10
5.41146e-10
1.60043e-08
4.81698e-07
1.0904e-05
0.00045107
0.00429098
0.0833999
1.77999
16.4633
35.1707
28.3477
19.9825
13.7158
47.0816
605.892
4.27462e-11
1.88265e-10
5.27506e-11
1.72804e-10
1.06865e-09
4.7901e-08
1.42732e-06
2.03496e-05
0.000841184
0.00676811
0.115763
2.55633
21.255
41.501
33.4182
21.4895
13.1502
76.7239
554.887
6.45741e-11
1.86446e-10
8.36734e-11
2.24645e-10
4.9658e-10
1.59569e-08
8.00384e-07
3.58325e-05
0.000717396
0.0095819
0.0850071
1.43341
12.5787
41.6786
45.2585
24.9051
19.2356
215.877
506.419
4.82032e-11
1.74623e-10
1.45519e-10
2.65572e-10
2.73757e-10
3.58697e-09
2.86462e-07
6.63165e-06
0.000155533
0.00415447
0.0812065
1.00598
7.63261
36.2928
57.3291
34.4577
24.714
235.323
457.488
1.00044e-11
2.57387e-10
2.21007e-10
2.51021e-10
2.45561e-10
1.02809e-08
2.85096e-07
1.60927e-05
0.000661521
0.00999735
0.101284
0.710416
5.41277
27.0388
60.4947
58.0826
36.4929
216.899
405.62
-1.00046e-11
2.43745e-10
2.19188e-10
2.77396e-10
1.94632e-10
1.82804e-10
6.80642e-09
6.14035e-07
2.88208e-05
0.00101695
0.0216822
0.243044
2.47561
14.634
55.2298
79.7105
65.8174
202.95
362.435
9.09494e-11
1.89175e-10
1.45519e-10
1.74623e-10
1.80989e-10
1.437e-10
1.94539e-09
8.9348e-08
2.71172e-06
9.50364e-05
0.00265032
0.0703901
0.97549
6.90042
35.6637
80.553
102.603
198.737
332.9
2.12822e-10
2.27374e-10
1.00954e-10
1.60071e-10
1.88265e-10
5.45696e-11
3.73799e-10
1.17169e-08
4.70358e-07
2.42833e-05
0.00101055
0.0220877
0.245431
2.19367
14.8235
62.6275
107.88
191.334
303.071
3.28328e-10
1.35515e-10
-6.27553e-11
6.45741e-11
8.36735e-11
-3.00134e-11
6.45739e-11
8.33993e-10
4.2911e-08
2.51889e-06
0.000106759
0.00241806
0.0331501
0.430949
3.72609
22.7539
95.0478
178.753
285.311
1.9827e-10
2.21007e-10
-1.36425e-11
1.628e-10
1.60071e-10
3.27418e-11
3.09228e-11
8.36732e-11
5.58413e-10
1.53396e-08
4.63225e-07
1.66301e-05
0.000440824
0.0218646
0.353958
3.10583
36.3876
99.2395
230.048
)
;

boundaryField
{
    leftWall
    {
        type            zeroGradient;
    }
    rightWall
    {
        type            zeroGradient;
    }
    lowerWall
    {
        type            zeroGradient;
    }
    atmosphere
    {
        type            zeroGradient;
    }
    defaultFaces
    {
        type            empty;
    }
}


// ************************************************************************* //
