/*--------------------------------*- C++ -*----------------------------------*\
| =========                 |                                                 |
| \\      /  F ield         | foam-extend: Open Source CFD                    |
|  \\    /   O peration     | Version:     4.1                                |
|   \\  /    A nd           | Web:         http://www.foam-extend.org         |
|    \\/     M anipulation  |                                                 |
\*---------------------------------------------------------------------------*/
FoamFile
{
    version     2.0;
    format      ascii;
    class       volVectorField;
    location    "0.45";
    object      U;
}
// * * * * * * * * * * * * * * * * * * * * * * * * * * * * * * * * * * * * * //

dimensions      [0 1 -1 0 0 0 0];

internalField   nonuniform List<vector> 
2268
(
(-0.01308 -0.0127564 0)
(0.0637619 -0.0083697 0)
(0.0829344 -0.00761642 0)
(0.161612 -0.00948713 0)
(0.201789 -0.0141471 0)
(0.376243 -0.0116253 0)
(0.424707 -0.000228823 0)
(0.483061 -0.0178972 0)
(0.74173 -0.0153717 0)
(0.669213 -0.0505508 0)
(0.566125 9.7632e-05 0)
(0.613728 -0.0132043 0)
(0.64404 0.00925998 0)
(0.610099 0.0426018 0)
(0.663436 0.13366 0)
(0.787568 -0.0323102 0)
(0.76448 0.00178694 0)
(0.619211 0.0973715 0)
(0.455616 0.0583865 0)
(0.293607 -0.051145 0)
(0.141729 -0.0256437 0)
(0.188996 0.0668651 0)
(-0.210924 -0.141552 0)
(-0.0103949 -0.0106332 0)
(0.0669741 -0.0145321 0)
(0.0859713 -0.0149674 0)
(0.160512 -0.0198538 0)
(0.204081 -0.0342196 0)
(0.375709 -0.0460395 0)
(0.413323 -0.0389586 0)
(0.489049 -0.0644159 0)
(0.768481 -0.027479 0)
(0.652429 -0.188395 0)
(0.569602 0.00998327 0)
(0.615134 -0.0408552 0)
(0.646842 -0.0015762 0)
(0.651889 -0.0435991 0)
(0.639488 0.0858559 0)
(0.671331 0.0253205 0)
(0.761222 0.0328996 0)
(0.616718 -0.0229174 0)
(0.470997 0.0974639 0)
(0.429228 0.0250062 0)
(0.385878 0.0715244 0)
(0.319795 0.0916958 0)
(0.341317 0.130972 0)
(-0.0111125 -0.0404954 0)
(0.0705626 -0.0319122 0)
(0.088309 -0.0296695 0)
(0.158807 -0.0389048 0)
(0.202503 -0.063437 0)
(0.361723 -0.0620813 0)
(0.434062 -0.0451111 0)
(0.530661 -0.117314 0)
(0.697633 -0.0633525 0)
(0.640851 -0.227519 0)
(0.554009 -0.027297 0)
(0.519973 -0.00149568 0)
(0.540457 -0.0384959 0)
(0.527834 0.0890888 0)
(0.6272 0.138341 0)
(0.709163 0.195978 0)
(0.742554 0.0775376 0)
(0.592131 -0.0623387 0)
(0.495979 0.0240361 0)
(0.373524 0.040499 0)
(0.270141 0.0733247 0)
(0.260081 0.105751 0)
(0.354947 0.176879 0)
(-0.00409251 -0.0353443 0)
(0.0825432 -0.0375619 0)
(0.0939732 -0.0347737 0)
(0.151685 -0.0478965 0)
(0.221101 -0.0792587 0)
(0.405461 -0.107924 0)
(0.454272 -0.0287718 0)
(0.545473 -0.12796 0)
(0.624466 -0.0411296 0)
(0.575817 -0.181312 0)
(0.545491 -0.164197 0)
(0.475349 -0.121198 0)
(0.541417 0.0506698 0)
(0.614943 0.0938689 0)
(0.576948 0.195556 0)
(0.610653 0.189136 0)
(0.632051 0.103035 0)
(0.558407 0.0369928 0)
(0.489454 -0.0147789 0)
(0.471262 0.0889351 0)
(0.369062 0.0860298 0)
(0.299929 0.186798 0)
(0.379654 0.266853 0)
(-0.00791711 -0.0830715 0)
(0.0846794 -0.0570886 0)
(0.092145 -0.0467959 0)
(0.158728 -0.0710418 0)
(0.259183 -0.122267 0)
(0.437835 -0.121933 0)
(0.410691 -0.0823236 0)
(0.511288 -0.185674 0)
(0.581205 -0.0802061 0)
(0.548395 -0.201786 0)
(0.534006 -0.193759 0)
(0.567298 -0.151446 0)
(0.579541 0.095644 0)
(0.564964 -0.106846 0)
(0.604738 0.119308 0)
(0.527717 0.16515 0)
(0.541154 0.0556733 0)
(0.492432 0.0133458 0)
(0.492602 0.029206 0)
(0.470951 0.114208 0)
(0.368392 0.118839 0)
(0.296702 0.250466 0)
(0.402449 0.347158 0)
(0.00953022 -0.0622357 0)
(0.103879 -0.0594805 0)
(0.0968051 -0.0506566 0)
(0.186119 -0.088104 0)
(0.303266 -0.143407 0)
(0.434455 -0.143687 0)
(0.384958 -0.15903 0)
(0.477446 -0.15642 0)
(0.609973 -0.122524 0)
(0.545132 -0.186548 0)
(0.585125 -0.213862 0)
(0.578969 -0.000789249 0)
(0.541246 -0.118474 0)
(0.590236 -0.0415166 0)
(0.733865 0.0577416 0)
(0.574663 0.194862 0)
(0.531229 0.0767572 0)
(0.542953 0.0677007 0)
(0.55422 0.0387353 0)
(0.528424 0.17151 0)
(0.399538 0.178239 0)
(0.313223 0.348281 0)
(0.380086 0.421451 0)
(0.00027304 -0.0469356 0)
(0.100913 -0.0827345 0)
(0.100643 -0.0675179 0)
(0.223932 -0.122726 0)
(0.324648 -0.1798 0)
(0.435985 -0.155586 0)
(0.410871 -0.132875 0)
(0.563449 -0.114438 0)
(0.579362 -0.242955 0)
(0.519414 -0.208342 0)
(0.605684 -0.217249 0)
(0.62221 -0.162747 0)
(0.549083 0.0932435 0)
(0.671058 0.132603 0)
(0.753245 -0.110624 0)
(0.631748 0.0942107 0)
(0.490167 0.109076 0)
(0.506434 0.0903566 0)
(0.60516 -0.0182223 0)
(0.605508 0.182726 0)
(0.488189 0.18953 0)
(0.307538 0.409914 0)
(0.398258 0.533023 0)
(-0.00848104 -0.0779917 0)
(0.0989205 -0.0745755 0)
(0.127589 -0.0783938 0)
(0.251256 -0.141302 0)
(0.353887 -0.187315 0)
(0.476012 -0.161772 0)
(0.462678 -0.22724 0)
(0.507626 -0.178033 0)
(0.593675 -0.285907 0)
(0.587447 -0.222766 0)
(0.602199 -0.124673 0)
(0.699872 -0.118876 0)
(0.596177 0.0822593 0)
(0.512226 -0.00578395 0)
(0.624297 0.0634486 0)
(0.555155 0.121441 0)
(0.39138 0.0093257 0)
(0.348329 0.0172433 0)
(0.54638 -0.00937597 0)
(0.68291 0.233832 0)
(0.582127 0.312432 0)
(0.372907 0.439211 0)
(0.312402 0.728104 0)
(-0.81656 0.201565 0)
(-1.05779 -0.0341907 0)
(-1.1132 -0.0319015 0)
(-1.11301 -0.0465662 0)
(-1.19393 -0.0644973 0)
(-1.25906 -0.0806754 0)
(-1.21694 -0.125413 0)
(-1.23954 -0.179818 0)
(-1.51812 -0.0202799 0)
(-1.21617 0.0387396 0)
(-1.28478 -0.150838 0)
(-1.52888 0.182796 0)
(-1.22765 -0.109949 0)
(-1.01294 -0.0892583 0)
(-0.467163 -0.0950554 0)
(-0.246811 -0.0527764 0)
(-0.139487 -0.0710911 0)
(-0.364037 0.0472462 0)
(-0.155322 -0.105097 0)
(-0.522093 0.546382 0)
(-0.376117 0.202037 0)
(-0.629852 0.0715342 0)
(-0.67825 0.0674038 0)
(-0.676776 0.101216 0)
(-0.602416 0.103486 0)
(-0.507091 0.0343845 0)
(-0.848572 -0.209169 0)
(-1.30015 0.0907527 0)
(-1.1374 0.243072 0)
(-1.06661 -0.0917892 0)
(-1.3956 0.25663 0)
(-0.827039 -0.0947333 0)
(-0.3912 -0.217759 0)
(-0.252797 -0.25232 0)
(-0.00589287 -0.14387 0)
(0.133445 0.076863 0)
(-0.2585 0.0785814 0)
(0.145785 -0.138222 0)
(-0.347694 1.05862 0)
(0.0832509 0.515575 0)
(-0.136621 0.268945 0)
(-0.22611 0.041697 0)
(-0.344241 -0.0750824 0)
(-0.288221 -0.140875 0)
(-0.176052 -0.213114 0)
(-0.655011 -0.0265707 0)
(-0.840873 0.162528 0)
(-0.740201 0.36993 0)
(-0.239996 -0.222523 0)
(-0.809195 -0.217768 0)
(-0.44996 -0.039729 0)
(0.215902 -0.397582 0)
(0.30917 -0.265734 0)
(0.288812 -0.180402 0)
(0.332962 0.0440194 0)
(0.10928 0.088894 0)
(0.225042 -0.148327 0)
(-0.31645 0.915371 0)
(0.604158 0.260736 0)
(0.784505 0.0279593 0)
(0.544756 0.218338 0)
(0.128702 0.306129 0)
(0.14569 -0.0230399 0)
(0.163109 0.0420875 0)
(-0.15175 0.0883892 0)
(-0.239934 0.187177 0)
(-0.323764 0.274549 0)
(0.27326 -0.108883 0)
(-0.263748 -0.0486102 0)
(0.300722 -0.284299 0)
(0.548569 -0.353509 0)
(0.772159 -0.279917 0)
(0.668038 -0.13115 0)
(0.496254 0.0427774 0)
(0.362202 0.105922 0)
(0.302313 -0.070631 0)
(-0.259022 0.731967 0)
(0.622909 0.0912146 0)
(0.893069 -0.0922495 0)
(0.381837 0.261335 0)
(0.127827 0.129484 0)
(0.00277674 0.00142076 0)
(-0.24558 -0.0260939 0)
(-0.229705 0.102414 0)
(0.291366 0.0505317 0)
(0.209317 0.0122816 0)
(0.460307 -0.0581456 0)
(0.456728 -0.205324 0)
(0.862096 -0.375994 0)
(0.921401 -0.36573 0)
(0.958882 -0.289944 0)
(0.938797 -0.184349 0)
(0.753079 0.0965182 0)
(0.529702 0.136504 0)
(0.27258 -0.0105805 0)
(-0.176662 0.612592 0)
(0.566214 0.0403357 0)
(0.53573 0.00378272 0)
(0.310658 0.467466 0)
(0.158047 0.277209 0)
(-0.123036 0.102556 0)
(0.140192 0.0279671 0)
(0.200817 -0.0539337 0)
(0.609835 0.056393 0)
(0.612766 0.0938543 0)
(0.804508 -0.0543246 0)
(0.858288 -0.232497 0)
(1.11366 -0.385278 0)
(1.09612 -0.365051 0)
(1.0517 -0.28616 0)
(1.05061 -0.195708 0)
(0.882121 0.13014 0)
(0.681964 0.216553 0)
(0.316299 0.0956044 0)
(0.135635 0.34187 0)
(0.452533 -0.0587889 0)
(0.548164 -0.00221206 0)
(0.339998 0.410949 0)
(-0.0467909 0.200644 0)
(-0.0549307 0.165963 0)
(0.759604 -0.150214 0)
(-0.706218 -0.0363287 0)
(0.134684 -0.148221 0)
(0.544675 0.184912 0)
(0.961769 -0.0864367 0)
(1.22267 -0.333025 0)
(1.32869 -0.434033 0)
(1.3087 -0.37162 0)
(1.18994 -0.283264 0)
(1.14127 -0.152414 0)
(0.998047 0.163359 0)
(0.718537 0.259115 0)
(0.361405 0.204558 0)
(0.0406595 0.197808 0)
(0.399145 -0.204612 0)
(0.389562 0.00159187 0)
(0.374609 0.771012 0)
(-0.0370018 0.324079 0)
(0.150204 -0.212102 0)
(0.541729 0.0527352 0)
(-0.513136 0.242898 0)
(0.35395 -0.45634 0)
(0.676887 0.00802112 0)
(1.34032 -0.214586 0)
(1.51507 -0.389042 0)
(1.48818 -0.419818 0)
(1.41881 -0.34249 0)
(1.29075 -0.240588 0)
(1.1137 -0.101783 0)
(1.08435 0.240985 0)
(0.794208 0.349974 0)
(0.340326 0.319218 0)
(0.0107863 -0.10688 0)
(0.106483 -0.118766 0)
(0.146192 -0.11603 0)
(0.255233 -0.202655 0)
(0.368297 -0.277027 0)
(0.454789 -0.223433 0)
(0.527613 -0.334358 0)
(0.611485 -0.271378 0)
(0.714205 -0.29663 0)
(0.695329 -0.235182 0)
(0.697641 -0.13496 0)
(0.595154 0.124342 0)
(0.504094 -0.0219164 0)
(0.591591 0.0452176 0)
(0.968749 0.102979 0)
(0.801375 0.0215973 0)
(0.532231 -0.0171506 0)
(0.608299 -0.0158896 0)
(0.603695 0.078394 0)
(0.525404 0.0948812 0)
(0.55399 0.277423 0)
(0.49967 0.552582 0)
(0.530847 0.982728 0)
(-0.0108036 -0.187042 0)
(0.058836 -0.173514 0)
(0.104186 -0.223613 0)
(0.179923 -0.356649 0)
(0.337828 -0.321521 0)
(0.565254 -0.28938 0)
(0.610877 -0.352181 0)
(0.722234 -0.316813 0)
(0.769124 -0.309977 0)
(0.728675 -0.22885 0)
(0.708935 0.023703 0)
(0.525641 0.026887 0)
(0.431167 0.0957944 0)
(0.554127 0.195211 0)
(0.639252 0.0850685 0)
(0.578725 -0.154297 0)
(0.555696 0.0595826 0)
(0.522744 0.0518412 0)
(0.426135 0.0751524 0)
(0.389019 0.165729 0)
(0.56575 0.318269 0)
(0.809769 0.442502 0)
(0.978596 1.0429 0)
(-0.0223377 -0.145489 0)
(-0.113136 -0.248681 0)
(-0.00727883 -0.237307 0)
(0.296765 -0.400375 0)
(0.47697 -0.262571 0)
(0.302016 -0.342549 0)
(0.319372 -0.427641 0)
(0.502802 -0.374344 0)
(0.49116 -0.323091 0)
(0.719551 -0.203939 0)
(0.662714 -0.0868558 0)
(0.427449 -0.110116 0)
(0.480343 -0.14638 0)
(0.542241 -0.0953375 0)
(0.628947 -0.0622666 0)
(0.584923 0.0745027 0)
(0.465269 0.128885 0)
(0.509934 0.166147 0)
(0.464126 0.126707 0)
(0.559528 0.165403 0)
(0.693435 0.505554 0)
(1.05349 0.393899 0)
(1.14282 0.630108 0)
(-0.177508 -0.0587343 0)
(-0.0491294 -0.575267 0)
(0.0917376 -0.737017 0)
(0.0765553 -0.387532 0)
(0.22118 -0.32496 0)
(0.0768813 -0.202968 0)
(0.122192 -0.412194 0)
(0.160446 -0.356155 0)
(0.0137813 -0.394102 0)
(0.0722013 -0.310474 0)
(0.277949 -0.257708 0)
(0.319774 0.110807 0)
(0.617669 0.0449942 0)
(0.853359 -0.0298993 0)
(0.839237 0.0559529 0)
(0.638235 0.0520173 0)
(0.298895 0.138371 0)
(0.367391 0.176472 0)
(0.421421 0.204356 0)
(0.649948 0.289652 0)
(0.89217 0.631378 0)
(1.01556 0.549717 0)
(0.981969 0.276461 0)
(-0.102646 0.103159 0)
(-0.0929306 -0.819525 0)
(0.00496055 -1.00097 0)
(0.000772452 -0.863328 0)
(-0.0460536 -0.367951 0)
(0.14135 -0.355999 0)
(-0.021512 -0.610534 0)
(-0.0876892 -0.292894 0)
(-0.124687 -0.392436 0)
(-0.0436894 -0.431714 0)
(0.106838 -0.398306 0)
(0.783804 -0.292129 0)
(0.7052 -0.0996229 0)
(0.712956 -0.106818 0)
(0.730001 0.055975 0)
(0.603736 0.113328 0)
(0.359681 0.180756 0)
(0.492902 0.0806297 0)
(0.542956 0.191668 0)
(0.663657 0.163179 0)
(0.722883 0.200336 0)
(0.808754 0.283497 0)
(0.696957 0.196449 0)
(0.00909688 0.126971 0)
(0.0758697 -0.828281 0)
(-0.0896643 -0.990212 0)
(0.0307684 -1.15587 0)
(-0.0302001 -0.568888 0)
(0.018457 -0.66576 0)
(0.023537 -0.813042 0)
(-0.119746 -0.304199 0)
(-0.206484 -0.344915 0)
(-0.0909736 -0.469817 0)
(0.0744508 -0.65817 0)
(0.38809 -0.292376 0)
(0.387377 -0.451957 0)
(0.441016 -0.292051 0)
(0.375737 0.111275 0)
(0.153358 0.3126 0)
(0.142747 0.196027 0)
(0.819627 -0.0972173 0)
(0.81681 -0.0435351 0)
(0.789815 -0.0413822 0)
(0.724712 0.0735483 0)
(0.796445 0.194408 0)
(0.783961 0.21094 0)
(0.137401 0.0579119 0)
(0.286337 -0.662203 0)
(0.130157 -1.01156 0)
(0.161489 -1.00613 0)
(-0.0388988 -0.460068 0)
(-0.163993 -0.433317 0)
(-0.0885671 -0.540366 0)
(-0.282428 -0.196565 0)
(-0.215551 -0.324578 0)
(0.0405576 -0.688663 0)
(0.194271 -0.980232 0)
(0.351858 -0.690349 0)
(0.282516 -0.181651 0)
(0.0620499 0.0506884 0)
(0.175334 0.359533 0)
(0.112069 0.42624 0)
(0.417971 0.0758267 0)
(0.299844 -0.288654 0)
(0.150987 -0.452748 0)
(0.441925 0.100305 0)
(0.569084 0.163653 0)
(0.81814 0.228123 0)
(0.803053 0.283776 0)
(0.196148 -0.278274 0)
(0.423151 -0.738257 0)
(0.238459 -0.773438 0)
(0.117309 -0.621143 0)
(-0.263219 -0.19077 0)
(-0.108391 -0.350651 0)
(-0.069346 -0.575708 0)
(-0.205625 -0.409719 0)
(-0.0191386 -0.456912 0)
(0.0468268 -0.732807 0)
(0.0107598 -1.13592 0)
(0.222248 -0.917357 0)
(0.0976177 -0.296142 0)
(0.062627 -0.148904 0)
(0.148862 0.445138 0)
(-0.184116 0.457659 0)
(0.222746 0.23454 0)
(0.177612 -0.131228 0)
(0.0252514 -0.289224 0)
(0.0694124 -0.385045 0)
(0.183939 -0.26936 0)
(0.732091 0.0523215 0)
(0.64529 0.304182 0)
(-0.136361 -0.683017 0)
(0.112046 -0.650057 0)
(-0.0906691 -0.523147 0)
(0.0798853 -0.232664 0)
(-0.109676 0.104504 0)
(-0.0127194 -0.370701 0)
(-0.266369 -0.498839 0)
(-0.189817 -0.448405 0)
(0.0895575 -0.580823 0)
(0.0324107 -0.714932 0)
(-0.0635741 -1.06448 0)
(-0.0850097 -0.590046 0)
(0.150854 -0.469503 0)
(-0.0393836 -0.157452 0)
(0.166897 0.330861 0)
(0.072507 0.361753 0)
(0.217131 -0.0432142 0)
(0.13447 -0.19697 0)
(0.111525 -0.353574 0)
(0.159773 -0.243738 0)
(-0.0357709 -0.391142 0)
(0.290086 0.0124598 0)
(0.308486 0.0470938 0)
(-0.0413043 -1.02534 0)
(0.133485 -0.706905 0)
(-0.0965541 -0.724096 0)
(0.154698 -0.480703 0)
(0.0797455 -0.106983 0)
(0.0552731 -0.529532 0)
(0.00483768 -0.598267 0)
(0.0679079 -0.280023 0)
(-0.031474 -0.54317 0)
(0.00305413 -0.686574 0)
(-0.0148821 -0.966165 0)
(-0.132434 -0.505758 0)
(0.0178392 -0.443507 0)
(0.0236954 -0.144792 0)
(0.00336064 0.518714 0)
(-0.117453 0.234224 0)
(0.00918219 -0.154408 0)
(0.0524257 -0.038721 0)
(0.028284 -0.286472 0)
(-0.0534118 -0.267205 0)
(-0.0897473 -0.532737 0)
(-0.0174381 -0.39319 0)
(-0.182447 0.041854 0)
(-0.0980029 -0.937838 0)
(0.0639208 -0.534588 0)
(-0.0909684 -0.626153 0)
(0.00492744 -0.421669 0)
(0.0620674 0.0782446 0)
(0.155956 -0.263595 0)
(0.0167756 -0.511296 0)
(0.0242129 -0.389714 0)
(-0.0506351 -0.478517 0)
(-0.0400252 -0.745435 0)
(0.0107071 -0.906928 0)
(-0.156651 -0.588994 0)
(0.058948 -0.184252 0)
(-0.34696 -0.047233 0)
(-0.170123 0.281739 0)
(-0.0770915 0.170639 0)
(-0.0498557 -0.203863 0)
(0.018559 -0.120682 0)
(0.023573 -0.220981 0)
(-0.111224 -0.224829 0)
(-0.105144 -0.319094 0)
(-0.182179 -0.170568 0)
(-0.0676622 0.0268305 0)
(-0.131663 -0.990315 0)
(-0.00015907 -0.659704 0)
(-0.0759559 -0.696728 0)
(-0.0466946 -0.595577 0)
(-0.00837498 -0.283659 0)
(0.0875137 -0.280234 0)
(0.0393814 -0.39524 0)
(0.0448287 -0.299229 0)
(-0.0793355 -0.453123 0)
(-0.0393988 -0.807294 0)
(0.0232848 -0.807543 0)
(-0.24717 -0.64918 0)
(0.0462 -0.100978 0)
(-0.340266 0.070093 0)
(-0.1419 0.184445 0)
(-0.0162302 0.0747504 0)
(0.0286257 -0.186501 0)
(-0.00182033 -0.144219 0)
(-0.0651746 -0.210038 0)
(-0.169312 -0.198495 0)
(-0.133772 -0.175017 0)
(-0.198531 -0.250123 0)
(-0.182204 -0.18183 0)
(-0.184446 -0.831082 0)
(-0.0105645 -0.467276 0)
(7.20503e-05 -0.713466 0)
(-0.0798995 -0.396076 0)
(0.160058 -0.44423 0)
(0.124243 -0.369162 0)
(0.0430998 -0.364758 0)
(0.124921 -0.290544 0)
(-0.0568469 -0.363633 0)
(-0.00919814 -0.868887 0)
(0.0217159 -0.716857 0)
(-0.286688 -0.76927 0)
(-0.378603 -0.0826181 0)
(-0.403155 0.0671592 0)
(-0.053234 -0.00529933 0)
(0.0519169 0.00268325 0)
(-0.0179361 -0.195841 0)
(0.0217505 -0.194726 0)
(-0.0736451 -0.185117 0)
(-0.111496 -0.202448 0)
(-0.109166 -0.148554 0)
(-0.182085 -0.234485 0)
(-0.152554 -0.13253 0)
(0.0312517 -0.530349 0)
(0.0261839 -0.363445 0)
(-0.0588212 -0.395214 0)
(0.0340337 -0.340788 0)
(0.0402806 -0.324371 0)
(0.206396 -0.311306 0)
(0.22819 -0.333346 0)
(0.308899 -0.236105 0)
(0.0380654 -0.341852 0)
(-0.0198115 -0.860536 0)
(0.0127839 -0.684998 0)
(-0.142793 -0.716443 0)
(-0.104038 -0.325273 0)
(0.240751 -0.0510054 0)
(0.150555 -0.0243776 0)
(0.0558219 -0.0052184 0)
(0.0253092 -0.0846007 0)
(-0.0386678 -0.113262 0)
(-0.0409835 -0.219465 0)
(-0.0921247 -0.189626 0)
(-0.0564268 -0.210178 0)
(-0.0841637 -0.166021 0)
(-0.169964 -0.118567 0)
(-0.12785 -0.308026 0)
(-0.0626176 -0.338593 0)
(-0.0550305 -0.289905 0)
(-0.0458964 -0.421762 0)
(0.0715024 -0.337864 0)
(0.0909426 -0.338612 0)
(0.187082 -0.478973 0)
(0.214434 -0.42517 0)
(0.529742 -0.325238 0)
(0.116216 -0.904459 0)
(0.039109 -0.639198 0)
(-0.0694825 -0.532269 0)
(-0.0921289 -0.508738 0)
(0.110276 -0.0587341 0)
(0.0704632 0.0769164 0)
(-0.0012492 0.0179804 0)
(0.00326788 -0.0120617 0)
(-0.0332394 -0.0701485 0)
(0.000986069 -0.0863292 0)
(-0.0337261 -0.164582 0)
(-0.0800442 -0.0743408 0)
(-0.0442986 -0.195338 0)
(-0.100228 -0.118788 0)
(-0.0835564 -0.342069 0)
(-0.0384889 -0.355744 0)
(-0.0491293 -0.376684 0)
(-0.0387979 -0.415506 0)
(0.00921675 -0.426704 0)
(-0.00253257 -0.49541 0)
(0.115753 -0.578003 0)
(0.128147 -0.431207 0)
(0.199186 -0.346637 0)
(0.10297 -1.04486 0)
(-0.0500119 -0.599045 0)
(-0.0188103 -0.351725 0)
(0.0610782 -0.528893 0)
(-0.101775 -0.14134 0)
(0.00509466 0.12643 0)
(-0.12514 0.0213247 0)
(0.0161511 -0.00220022 0)
(-0.0590392 -0.0378667 0)
(-0.0441679 -0.0618659 0)
(-0.040715 -0.110526 0)
(-0.104865 -0.156562 0)
(-0.115909 -0.127982 0)
(-0.099404 -0.143068 0)
(-0.10177 -0.308295 0)
(-0.082321 -0.298818 0)
(-0.107002 -0.385123 0)
(-0.0389339 -0.425323 0)
(-0.0291334 -0.41995 0)
(-0.120163 -0.583473 0)
(0.147972 -0.474721 0)
(0.222324 -0.701412 0)
(0.180567 -0.408038 0)
(0.249579 -0.473788 0)
(0.0092708 -0.491122 0)
(-0.0561854 -0.245799 0)
(-0.134793 -0.380748 0)
(-0.390284 -0.0716995 0)
(-0.343296 0.0992578 0)
(-0.140432 0.0380851 0)
(-0.0998409 -0.0309399 0)
(-0.101451 -0.0158786 0)
(-0.0766708 -0.0962447 0)
(-0.160443 -0.0637329 0)
(-0.127509 -0.124756 0)
(-0.0580887 -0.137599 0)
(-0.0215304 -0.127191 0)
(0.0750857 -0.488264 0)
(0.0025886 -0.474786 0)
(-0.1364 -0.335159 0)
(-0.0339181 -0.415871 0)
(-0.106144 -0.394566 0)
(-0.0505808 -0.578828 0)
(-0.073536 -0.510481 0)
(-0.039594 -0.934126 0)
(-0.0432788 -0.846262 0)
(0.171047 -0.636485 0)
(-0.0375579 -0.347016 0)
(-0.039556 -0.207966 0)
(-0.141003 -0.255926 0)
(-0.536834 -0.240441 0)
(-0.408019 -0.0231631 0)
(-0.178184 -0.0130454 0)
(-0.0893822 -0.0401116 0)
(-0.144184 -0.0779545 0)
(-0.0841217 -0.0911931 0)
(-0.0942001 -0.106645 0)
(-0.140231 -0.0785133 0)
(-0.0995539 -0.149858 0)
(-0.125627 -0.187257 0)
(-0.00244127 -0.513023 0)
(0.111077 -0.53864 0)
(-0.0307774 -0.534135 0)
(-0.0542995 -0.321714 0)
(-0.136725 -0.557389 0)
(-0.220946 -0.512529 0)
(-0.168104 -0.551899 0)
(-0.237242 -0.593484 0)
(-0.164787 -0.68616 0)
(-0.246518 -0.685478 0)
(-0.224863 -0.615981 0)
(-0.202398 -0.334757 0)
(-0.45853 -0.378383 0)
(-0.407168 -0.174356 0)
(-0.382993 -0.13982 0)
(-0.186084 -0.0601403 0)
(-0.185216 -0.0829085 0)
(-0.148532 -0.106732 0)
(-0.0859226 -0.148766 0)
(-0.12994 -0.177639 0)
(-0.0712863 -0.116443 0)
(-0.102959 -0.143875 0)
(-0.0826766 -0.11248 0)
(0.0133479 -0.57337 0)
(0.0114094 -0.56976 0)
(0.0779867 -0.637538 0)
(-0.0470883 -0.521852 0)
(-0.26576 -0.641629 0)
(-0.127485 -0.590793 0)
(-0.0863938 -0.457781 0)
(-0.190176 -0.451262 0)
(-0.208967 -0.507766 0)
(-0.276719 -0.444215 0)
(-0.356851 -0.271345 0)
(-0.342902 -0.207984 0)
(-0.441817 -0.184669 0)
(-0.486786 -0.203719 0)
(-0.234045 -0.0807277 0)
(-0.170945 -0.070337 0)
(-0.170278 -0.0601924 0)
(-0.219368 -0.0471873 0)
(-0.178756 -0.115415 0)
(-0.0606397 -0.126175 0)
(-0.0658543 -0.202609 0)
(-0.0970141 -0.137538 0)
(-0.0743961 -0.0687119 0)
(-0.00358844 -0.574523 0)
(-0.00150974 -0.572797 0)
(-0.0218024 -0.555697 0)
(-0.0350363 -0.594427 0)
(-0.139179 -0.524825 0)
(0.0354057 -0.432337 0)
(0.0276996 -0.55784 0)
(-0.26614 -0.423703 0)
(-0.191708 -0.440236 0)
(-0.118069 -0.449907 0)
(-0.209294 -0.44876 0)
(-0.379344 -0.368152 0)
(-0.374699 -0.315135 0)
(-0.242465 -0.151122 0)
(-0.245364 -0.0927952 0)
(-0.160113 -0.142202 0)
(-0.165759 -0.160258 0)
(-0.16952 -0.0946218 0)
(-0.183894 -0.105659 0)
(-0.21781 -0.0938954 0)
(-0.115639 -0.193772 0)
(0.0100633 -0.156297 0)
(-0.085365 -0.182613 0)
(-0.00404553 -0.557555 0)
(-0.00900752 -0.54449 0)
(0.00629931 -0.518298 0)
(-0.0325309 -0.541514 0)
(-0.0299858 -0.538896 0)
(-0.0207037 -0.308931 0)
(0.0415988 -0.634881 0)
(-0.0613452 -0.505962 0)
(-0.256744 -0.404491 0)
(-0.23282 -0.413786 0)
(-0.220131 -0.467247 0)
(-0.25435 -0.475342 0)
(-0.263561 -0.325365 0)
(-0.200928 -0.280621 0)
(-0.196795 -0.187313 0)
(-0.22026 -0.128062 0)
(-0.0801885 -0.229055 0)
(-0.168534 -0.21695 0)
(-0.195792 -0.271142 0)
(-0.113004 -0.158541 0)
(-0.131735 -0.139223 0)
(-0.100533 -0.14886 0)
(-0.13313 -0.18046 0)
(-0.0161682 -0.584229 0)
(-0.0101762 -0.593127 0)
(-0.0848168 -0.583297 0)
(-0.0198036 -0.44066 0)
(0.156893 -0.577198 0)
(0.0163503 -0.541309 0)
(-0.155189 -0.529128 0)
(-0.0521545 -0.612187 0)
(-0.157593 -0.575785 0)
(-0.162567 -0.479429 0)
(-0.134661 -0.43327 0)
(-0.232381 -0.387569 0)
(-0.169899 -0.323319 0)
(-0.103782 -0.307987 0)
(-0.122128 -0.247939 0)
(-0.201271 -0.248701 0)
(-0.216258 -0.21797 0)
(-0.202587 -0.270177 0)
(-0.127417 -0.158008 0)
(-0.0774928 -0.118139 0)
(-0.0905521 -0.186886 0)
(-0.0332068 -0.163073 0)
(-0.000456162 -0.244801 0)
(-0.0800611 -0.49193 0)
(-0.0681806 -0.392211 0)
(0.0798589 -0.386885 0)
(0.00327645 -0.348613 0)
(-0.00730786 -0.363033 0)
(0.0997986 -0.616891 0)
(-0.0340053 -0.523793 0)
(-0.0296848 -0.50527 0)
(-0.0948833 -0.496539 0)
(-0.109746 -0.423813 0)
(-0.130075 -0.398064 0)
(-0.116609 -0.369245 0)
(-0.132173 -0.253978 0)
(-0.0632922 -0.283115 0)
(-0.153336 -0.292452 0)
(-0.206368 -0.235491 0)
(-0.105183 -0.267224 0)
(-0.111095 -0.278919 0)
(-0.0336063 -0.135655 0)
(-0.114182 -0.185732 0)
(-0.153211 -0.168369 0)
(-0.122931 -0.19125 0)
(-0.0877735 -0.198684 0)
(0.0622002 -0.290439 0)
(0.0526372 -0.290464 0)
(-0.000560216 -0.246901 0)
(-0.0311121 -0.322016 0)
(-0.0692596 -0.276674 0)
(-0.0795826 -0.367336 0)
(0.0311806 -0.32965 0)
(0.037531 -0.507057 0)
(-0.0430368 -0.422129 0)
(-0.0629122 -0.429832 0)
(-0.0780689 -0.448888 0)
(-0.103798 -0.440259 0)
(-0.0919764 -0.405407 0)
(-0.0722383 -0.360054 0)
(-0.00863542 -0.384695 0)
(-0.173453 -0.301734 0)
(-0.219245 -0.296737 0)
(-0.0307602 -0.184572 0)
(-0.0434081 -0.239496 0)
(-0.117489 -0.264335 0)
(-0.0948743 -0.184919 0)
(-0.0747008 -0.19182 0)
(-0.060688 -0.132379 0)
(0.000833854 -0.235961 0)
(-0.0103582 -0.292165 0)
(-0.00355338 -0.292946 0)
(-0.00654343 -0.287849 0)
(-0.0296333 -0.283385 0)
(-0.0242937 -0.260536 0)
(-0.0976925 -0.252119 0)
(-0.0644798 -0.298291 0)
(-0.0244808 -0.306467 0)
(-0.139353 -0.320756 0)
(-0.124155 -0.275862 0)
(-0.0686041 -0.291428 0)
(-0.014248 -0.286694 0)
(0.0306839 -0.403124 0)
(-0.0720502 -0.308155 0)
(-0.130691 -0.420169 0)
(-0.00501674 -0.183711 0)
(0.00186291 -0.283895 0)
(-0.12561 -0.265979 0)
(-0.0763936 -0.270026 0)
(-0.0759493 -0.19777 0)
(-0.0935918 -0.204409 0)
(-0.0617563 -0.185608 0)
(0.00696513 -0.269235 0)
(0.00732844 -0.283921 0)
(-0.00611933 -0.269659 0)
(-0.00953876 -0.279759 0)
(-0.0289846 -0.268382 0)
(-0.0221327 -0.285339 0)
(-0.0286835 -0.270008 0)
(-0.0285143 -0.229885 0)
(-0.0426432 -0.265915 0)
(-0.0516054 -0.255525 0)
(-0.0671123 -0.203435 0)
(-0.0848761 -0.216329 0)
(-0.109094 -0.20785 0)
(-0.0777185 -0.239852 0)
(-0.062192 -0.270765 0)
(-0.0079427 -0.219095 0)
(-0.0780229 -0.236656 0)
(-0.0688093 -0.299558 0)
(0.00489798 -0.318044 0)
(-0.0552633 -0.303992 0)
(-0.0124598 -0.178129 0)
(-0.077879 -0.192602 0)
(-0.0198177 -0.171098 0)
(-0.00239189 -0.25643 0)
(-0.000941723 -0.278444 0)
(-0.00693432 -0.270503 0)
(-0.00483821 -0.267683 0)
(-0.0221569 -0.263064 0)
(-0.0180818 -0.258906 0)
(-0.0445619 -0.245561 0)
(-0.040033 -0.254913 0)
(-0.046295 -0.246062 0)
(-0.0601066 -0.255336 0)
(-0.0505646 -0.198399 0)
(-0.0636065 -0.232083 0)
(-0.0566797 -0.253879 0)
(-0.0604497 -0.218102 0)
(-0.0557973 -0.300944 0)
(-0.0731835 -0.139898 0)
(-0.0481706 -0.33297 0)
(-0.0438351 -0.13369 0)
(-0.102822 -0.22375 0)
(0.0489101 -0.206793 0)
(0.0404932 -0.231968 0)
(-0.0818223 -0.182811 0)
(-0.0785012 -0.196684 0)
(-0.00158907 -0.263572 0)
(0.0060264 -0.278482 0)
(-0.00354138 -0.269919 0)
(0.00393209 -0.268615 0)
(-0.0132804 -0.266773 0)
(-0.00626017 -0.274631 0)
(-0.0341217 -0.258053 0)
(-0.019998 -0.242559 0)
(-0.0325197 -0.250607 0)
(0.0121328 -0.245838 0)
(-0.026959 -0.246358 0)
(-0.112346 -0.222124 0)
(-0.0996515 -0.231566 0)
(-0.116294 -0.234345 0)
(0.0321638 -0.217636 0)
(-0.0121677 -0.299484 0)
(-0.0330175 -0.174013 0)
(0.0459565 -0.250645 0)
(-0.0884535 -0.178296 0)
(-0.0241813 -0.182329 0)
(-0.0143605 -0.321458 0)
(-0.0360548 -0.152433 0)
(-0.0467278 -0.19792 0)
(-0.00324296 -0.259217 0)
(0.00505763 -0.275812 0)
(-0.00634284 -0.265282 0)
(-0.00015852 -0.25345 0)
(-0.0251134 -0.243643 0)
(-0.012086 -0.213601 0)
(-0.0321222 -0.20653 0)
(-0.0328161 -0.24427 0)
(-0.0320697 -0.278896 0)
(-0.041937 -0.282811 0)
(-0.0214056 -0.308895 0)
(-0.0548726 -0.257931 0)
(-0.0709307 -0.244669 0)
(-0.0638352 -0.237712 0)
(-0.0560921 -0.188782 0)
(-0.0311291 -0.380332 0)
(-0.0389054 -0.180039 0)
(-0.0314527 -0.332412 0)
(-0.0258524 -0.219532 0)
(-0.0582413 -0.235447 0)
(0.0397717 -0.134839 0)
(0.0194838 -0.201095 0)
(-0.0327689 -0.165378 0)
(-0.00429658 -0.261315 0)
(0.0102109 -0.276567 0)
(0.00588141 -0.267735 0)
(0.0270649 -0.259133 0)
(0.0394743 -0.266098 0)
(0.0461944 -0.307169 0)
(-0.098367 -0.273905 0)
(-0.0838331 -0.251478 0)
(-0.0526483 -0.250756 0)
(-0.0383002 -0.259147 0)
(-0.0318608 -0.254174 0)
(-0.0656833 -0.229511 0)
(-0.0715069 -0.228733 0)
(-0.0861668 -0.23527 0)
(-0.0888447 -0.214161 0)
(-0.00773328 -0.225686 0)
(0.0193895 -0.153152 0)
(0.014424 -0.278898 0)
(-0.020642 -0.151938 0)
(0.035409 -0.233075 0)
(-0.0331122 -0.231195 0)
(-0.0978478 -0.312913 0)
(-0.0643151 -0.174525 0)
(-0.0059233 -0.262097 0)
(0.00650008 -0.276846 0)
(-0.00629998 -0.270641 0)
(0.00480387 -0.261851 0)
(-0.0194931 -0.281349 0)
(-0.01697 -0.380789 0)
(-0.017566 -0.346963 0)
(-0.0283639 -0.28861 0)
(-0.0125558 -0.363595 0)
(-0.0488116 -0.344305 0)
(-0.0192357 -0.334753 0)
(-0.040196 -0.248375 0)
(-0.0533785 -0.236875 0)
(-0.052312 -0.232894 0)
(-0.0525964 -0.206337 0)
(0.0298561 -0.197183 0)
(-0.0745708 -0.264647 0)
(-0.0271966 -0.209657 0)
(0.0227777 -0.273067 0)
(-0.113988 -0.220697 0)
(-0.0569707 -0.277918 0)
(0.0484624 -0.154873 0)
(0.0403638 -0.19558 0)
(-0.0055931 -0.265464 0)
(0.0067379 -0.276926 0)
(-0.00241803 -0.269659 0)
(0.0155658 -0.2514 0)
(-0.0145303 -0.258437 0)
(-0.00402354 -0.336383 0)
(-0.0547382 -0.286621 0)
(-0.105115 -0.262755 0)
(-0.0642905 -0.251248 0)
(0.0176694 -0.227569 0)
(0.0383051 -0.260989 0)
(-0.0152281 -0.187612 0)
(-0.038041 -0.217216 0)
(-0.058783 -0.225111 0)
(-0.0609292 -0.223547 0)
(-0.0736974 -0.216693 0)
(-0.00333601 -0.271849 0)
(0.0445342 -0.164103 0)
(0.00140545 -0.332211 0)
(0.00806892 -0.158866 0)
(0.00883487 -0.148275 0)
(-0.0219563 -0.219992 0)
(-0.0782848 -0.248863 0)
(-0.0050959 -0.267769 0)
(0.00406809 -0.278539 0)
(-0.00978277 -0.272933 0)
(0.00185277 -0.248691 0)
(-0.0646349 -0.267492 0)
(-0.0220113 -0.243092 0)
(0.0582849 -0.295301 0)
(-0.0245089 -0.182532 0)
(0.00739825 -0.19802 0)
(-0.0113082 -0.190045 0)
(0.0459475 -0.250971 0)
(-0.0177282 -0.237809 0)
(-0.0827094 -0.227326 0)
(-0.0527267 -0.226784 0)
(-0.0418239 -0.213761 0)
(-0.0219643 -0.194734 0)
(-0.027284 -0.169266 0)
(-0.0516283 -0.204533 0)
(0.0464304 -0.205092 0)
(0.0600257 -0.233673 0)
(-0.106508 -0.279641 0)
(-0.0463284 -0.235 0)
(0.0138664 -0.320823 0)
(-0.00473421 -0.264765 0)
(0.00340669 -0.274872 0)
(-0.00655259 -0.264191 0)
(0.00468114 -0.228731 0)
(-0.0090161 -0.184829 0)
(-0.00516764 -0.204113 0)
(0.0626846 -0.242329 0)
(-0.042997 -0.259287 0)
(-0.0721308 -0.245855 0)
(-0.0396217 -0.228315 0)
(-0.0197755 -0.27544 0)
(0.0060264 -0.294947 0)
(-0.0375551 -0.241983 0)
(-0.0457429 -0.241173 0)
(-0.0389505 -0.227945 0)
(-0.0392696 -0.217053 0)
(-0.01664 -0.220527 0)
(-0.00366021 -0.20014 0)
(-0.0089875 -0.174714 0)
(-0.0628201 -0.262725 0)
(0.0501285 -0.223883 0)
(0.0123254 -0.177402 0)
(-0.0822935 -0.194974 0)
(-0.00327054 -0.266835 0)
(0.00648188 -0.274394 0)
(-0.00210957 -0.277189 0)
(0.0555328 -0.240499 0)
(-0.0180968 -0.291618 0)
(-0.0701068 -0.263501 0)
(-0.00653078 -0.285824 0)
(-0.0229651 -0.304472 0)
(-0.00591993 -0.265126 0)
(-0.0245214 -0.240655 0)
(-0.0266497 -0.310695 0)
(-0.00414266 -0.23749 0)
(-0.0395008 -0.204745 0)
(-0.0432083 -0.232255 0)
(-0.0310595 -0.222725 0)
(-0.0178108 -0.212447 0)
(-0.0193001 -0.197434 0)
(-0.00747239 -0.215149 0)
(0.00403288 -0.193121 0)
(0.0235154 -0.286296 0)
(-0.00507771 -0.150414 0)
(0.0461776 -0.302406 0)
(-0.00442863 -0.213012 0)
(-0.000897515 -0.266144 0)
(-0.00361201 -0.27639 0)
(-0.00546727 -0.284672 0)
(0.000795967 -0.246821 0)
(-0.0039168 -0.339055 0)
(-0.0211773 -0.266368 0)
(-0.0031281 -0.283658 0)
(-0.0301612 -0.244775 0)
(-0.0378835 -0.251757 0)
(-0.0546535 -0.187805 0)
(-0.00484913 -0.244175 0)
(0.111629 -0.251496 0)
(-0.00271419 -0.250624 0)
(-0.0592646 -0.242077 0)
(-0.0361051 -0.236368 0)
(-0.0265644 -0.218649 0)
(-0.0305726 -0.213359 0)
(-0.01185 -0.198378 0)
(-0.044971 -0.200478 0)
(-0.0105444 -0.195103 0)
(0.0382064 -0.216009 0)
(0.0159663 -0.21086 0)
(-0.0474329 -0.324102 0)
(-0.00293307 -0.266251 0)
(-0.00689762 -0.277886 0)
(-0.00908954 -0.279785 0)
(0.00163393 -0.24156 0)
(-0.00989523 -0.257751 0)
(-0.0215298 -0.268624 0)
(-0.00545871 -0.277661 0)
(0.00883471 -0.266812 0)
(0.0411259 -0.2575 0)
(0.00742349 -0.27054 0)
(-0.0676627 -0.218061 0)
(-0.014004 -0.255339 0)
(-0.0424841 -0.28739 0)
(-0.025377 -0.252426 0)
(-0.0275634 -0.242962 0)
(-0.0191846 -0.222119 0)
(-0.0235493 -0.212766 0)
(-0.0112529 -0.192921 0)
(-0.00720918 -0.195586 0)
(-0.00175263 -0.159116 0)
(0.0015734 -0.150655 0)
(-0.0385567 -0.240769 0)
(0.025762 -0.203628 0)
(-0.000787197 -0.255005 0)
(-0.0049097 -0.272562 0)
(-0.00542992 -0.283198 0)
(-0.00695571 -0.259256 0)
(-0.0126629 -0.279488 0)
(-0.0138966 -0.280892 0)
(-0.0220291 -0.349682 0)
(-0.0063069 -0.288679 0)
(-0.0184951 -0.273298 0)
(-0.0171332 -0.342751 0)
(-0.0130259 -0.254632 0)