/*--------------------------------*- C++ -*----------------------------------*\
| =========                 |                                                 |
| \\      /  F ield         | foam-extend: Open Source CFD                    |
|  \\    /   O peration     | Version:     4.1                                |
|   \\  /    A nd           | Web:         http://www.foam-extend.org         |
|    \\/     M anipulation  |                                                 |
\*---------------------------------------------------------------------------*/
FoamFile
{
    version     2.0;
    format      ascii;
    class       volScalarField;
    location    "0.8";
    object      p;
}
// * * * * * * * * * * * * * * * * * * * * * * * * * * * * * * * * * * * * * //

dimensions      [1 -1 -2 0 0 0 0];

internalField   nonuniform List<scalar> 
2268
(
821.688
816.175
812.441
799.283
794.147
780.745
775.213
768.252
767.415
768.364
764.283
767.516
764.747
773.667
775.182
788.009
791.838
797.709
793.53
795.317
790.919
793.532
790.321
763.251
758.522
752.778
738.833
734.31
720.013
716.251
710.327
707.834
711.471
703.755
709.156
705.436
712.889
714.356
727.912
734.925
738.885
735.081
736.44
732.441
734.89
731.29
706.487
699.754
695.773
680.15
678.752
661.653
656.585
647.956
651.805
646.873
645.197
649.201
641.304
658.118
652.42
673.866
674.397
681.457
676.586
677.762
672.083
675.901
671.707
647.882
641.057
634.699
621.193
614.756
601.917
596.871
594.009
583.843
593.866
585.589
589.557
585.911
595.58
596.93
610.105
617.928
623.716
620.587
618.481
614.853
617.608
612.542
594.451
584.427
579.936
559.012
559.091
540.124
535.857
533.053
527.624
534.859
524.157
527.677
524.731
531.916
535.263
548.28
564.392
568.609
558.757
560.585
552.765
558.248
551.258
535.181
524.086
517.222
500.935
496.534
479.762
475.093
469.278
470.404
468.761
462.545
467.93
463.264
469.707
477.579
491.794
501.344
510.437
506.678
504.259
494.107
499.471
492.396
486.267
470.415
460.688
435.308
437.643
410.496
420.754
411.019
415.171
409.808
404.823
400.506
400.515
405.417
417.601
414.201
453.896
452.071
453.06
441.718
433.821
440.027
427.975
426.941
408.98
399.944
378.494
379.142
356.058
355.566
351.961
354.067
340.848
339.166
341.288
337.548
340.211
353.358
336.818
437.325
398.832
404.626
382.747
374.645
379.595
370.498
907.671
709.095
471.286
366.878
376.893
456.401
522.622
467.527
458.829
473.811
502.416
505.038
554.89
524.573
512.894
468.188
311.697
316.054
323.454
823.583
632.43
401.27
318.781
331.128
431.141
479.78
422.878
404.594
414.736
451.27
456.142
482.878
477.653
466.148
412.69
240.111
249.383
264.358
646.918
543.198
367.446
265.009
288.198
370.739
411.289
387.483
399.736
407.31
413.917
427.335
452.589
402.683
415.684
392.771
173.938
194.406
224.842
598.389
420.027
292.422
239.77
239.857
287.433
308.406
306.301
338.287
365.931
362.721
368.442
385.747
348.849
354.776
337.985
139.716
178.962
203.709
494.381
350.703
248.358
217.565
208.856
245.613
218.106
237.285
275.876
313.194
342.954
311.468
313.789
334.08
282.131
286.715
141.835
146.776
173.766
424.668
284.736
205.139
208.635
200.723
194.874
190.64
184.111
201.202
230.231
303.397
290.827
257.63
241.773
202.015
221.535
100.879
123.126
127.261
349.569
262.761
163.921
149.502
194.592
182.864
180.398
176.282
175.33
196.217
212.499
240.827
250.264
214.086
123.606
134.414
113.724
112.369
93.1609
283.452
245.647
160.826
155.895
196.063
180.612
176.692
171.849
167.273
174.794
189.353
212.39
205.766
145.027
80.3769
89.4169
81.2288
84.2501
79.1072
358.683
334.774
308.64
266.111
274.155
272.458
256.066
261.489
255.119
254.723
248.759
234.297
232.295
234.597
258.859
205.382
365.111
317.416
333.944
276.149
287.947
280.217
240.099
245.646
192.468
176.409
154.12
147.1
151.421
138.036
148.244
146.697
132.458
118.891
106.516
96.0403
111.468
97.7552
136.606
286.007
237.685
234.942
182.867
211.187
175.811
138.87
203.383
141.874
98.8348
79.5287
68.1355
78.4178
71.7587
62.4984
84.6856
85.4481
67.1007
36.3143
23.3303
38.4919
28.474
52.4109
134.424
124.511
90.8531
102.152
124.024
120.535
21.4134
116.998
71.5994
66.7527
62.2901
62.1616
47.0344
43.5419
51.8411
72.0327
56.6512
40.3449
12.9545
5.41535
13.1598
13.3613
24.6478
20.5883
260.079
37.4289
-76.1802
68.5396
70.9874
48.658
176.261
114.52
79.058
49.7561
30.3785
26.0883
34.1042
44.7646
47.7274
39.4622
23.9715
2.19428
1.8695
5.5644
8.51244
7.1795
88.5698
87.5867
-78.7532
-154.153
-110.094
-55.0018
-36.3991
232.806
87.655
51.691
16.94
12.1449
14.8884
19.8102
28.8123
9.7815
50.8556
6.96376
-3.59934
2.10997
4.9668
6.64512
7.40361
-13.3096
23.0678
-157.717
150.016
88.761
130.267
46.1289
93.2716
33.9377
15.2772
5.87924
7.7754
9.79566
6.91977
4.66178
8.55274
4.11976
0.398163
-0.594598
1.66084
3.81136
5.45346
5.54082
-6.98367
18.0529
25.8576
35.6909
-32.5808
1.28716
16.502
-0.108774
12.7755
7.41731
3.54987
3.78583
3.01874
1.24488
0.658372
1.43474
1.27312
0.952774
0.379083
1.64087
2.47509
0.27403
3.4525
-0.794667
2.63838
16.7568
23.8144
22.2612
57.288
-19.4772
22.617
5.89993
3.18448
2.99298
1.14615
0.663551
0.396112
0.570073
0.694289
-0.015282
-0.231533
-0.0589015
0.848779
1.70153
0.0433136
0.3
0.577674
0.282948
1.03436
3.13149
18.9381
27.5244
-32.1787
10.3198
3.52624
0.78102
1.53175
1.07057
-0.172238
-0.495915
-0.541237
-0.736315
-0.594282
0.208123
0.391209
1.19804
1.27715
0.402371
0.0147007
0.100585
0.14749
0.708017
1.65475
-1.60248
-1.68319
-10.2804
8.13303
3.14108
0.438302
-0.198823
-0.930526
-1.54078
-2.16715
-2.20784
-2.09609
-1.24618
1.5188
-0.281046
0.765257
0.87002
0.140982
0.0244291
-0.10025
-0.0304505
0.124651
-1.4334
-1.45429
-1.54951
-2.87333
4.07846
1.71224
-1.32295
-1.59612
-3.15795
-4.5768
-4.51071
-3.51906
-2.71189
-0.922309
0.0674812
-0.912
0.0857976
0.0044276
0.296687
0.104357
-0.0486125
0.212077
-0.262945
-0.974269
-1.05199
-1.85319
-4.6927
0.994918
-2.16715
-4.53544
-4.822
-5.81181
-5.93495
-5.49086
-4.47087
-2.96204
-1.42
-1.58268
0.352282
-0.033828
-0.0890714
0.506333
-0.0320305
-0.342966
-0.283507
-0.531031
-0.855931
-0.550623
-1.55727
-3.83233
-0.170004
-2.70494
-7.05941
-6.99425
-6.74493
-6.83927
-5.95898
-4.64171
-3.08108
-1.91974
-0.647773
0.305336
-0.151072
-0.476307
0.414108
-0.566972
-0.666537
-0.158022
-0.350984
-1.19355
-1.42678
-1.5845
-2.44984
0.38227
-0.442885
-4.11784
-5.7918
-6.374
-5.60262
-5.64304
-4.24628
-2.52328
-1.38077
-0.495703
-1.29147
-0.738083
-0.620326
0.210228
0.257877
-0.539369
-0.586425
-0.622498
-0.932656
-2.03091
-1.53405
-2.6252
6.85646
4.13912
0.838591
-3.47278
-4.72622
-6.32107
-7.3431
-3.90884
-1.94026
-1.31768
-0.82
-0.931743
-0.83966
0.327246
0.716506
-0.221956
-0.655358
-1.03707
-0.876497
-2.02269
-2.09527
-2.12353
-2.3052
12.4995
8.90288
2.75525
0.785501
0.00908232
-4.97718
-8.24252
-5.15364
-4.37065
-3.2922
-2.33348
-1.99032
-0.627941
-0.489323
0.524762
-0.409228
-0.870482
-1.35893
-1.37191
-2.07351
-2.15061
-2.29012
-2.0391
11.6627
10.7835
6.40693
5.17866
3.64312
-1.6164
-7.19518
-5.55274
-8.15836
-6.08917
-2.65214
-1.97876
-2.88501
-1.46603
0.227032
-1.12487
-1.48374
-1.75054
-2.02468
-2.47333
-2.06429
-2.14435
-2.03478
11.7716
11.6779
11.3301
9.258
8.12439
5.6119
-11.2652
-9.32555
-8.60061
-5.5439
-4.25547
-5.04471
-4.56935
-1.46042
-0.242903
-1.71872
-1.80206
-2.24263
-2.43218
-2.80191
-3.05446
-2.70682
-2.82977
13.0298
13.6542
13.4192
4.69843
0.943886
-1.71502
-5.24668
-7.82227
-10.6427
-10.4534
-12.2275
-13.7588
-6.5969
-2.23204
-0.955123
-2.72476
-2.19849
-3.1758
-3.01884
-3.89685
-3.68106
-2.95282
-3.26778
13.474
12.5146
9.64617
2.34841
-3.02054
-4.28099
-5.48274
-6.55565
-7.24912
-10.7344
-10.7025
-14.1056
-7.64658
-4.7582
-4.37705
-3.95686
-3.90116
-4.32873
-4.41228
-4.74211
-4.03441
-3.69344
-3.0735
13.905
12.6302
4.89754
-2.77374
-4.34683
-4.7989
-5.64119
-6.64176
-7.33555
-8.58917
-8.05528
-9.08668
-6.81559
-5.18118
-5.56466
-5.14934
-5.86276
-6.10425
-6.42102
-5.83057
-4.93673
-4.24279
-3.61176
12.8229
11.0904
1.47929
-3.20092
-4.22113
-4.80773
-5.75714
-6.08874
-6.88393
-8.75876
-8.46976
-7.66426
-6.5391
-5.88439
-4.99645
-4.25722
-5.84875
-6.5379
-6.72468
-6.7498
-7.11674
-4.99914
-3.93638
12.5503
10.8963
-0.681261
-3.11747
-4.2581
-4.83158
-5.80902
-5.78881
-6.26
-7.64976
-8.22196
-7.54255
-6.89034
-6.58409
-6.08118
-5.89666
-6.30304
-6.59632
-6.74947
-6.21609
-6.03226
-4.98238
-4.09107
4.9996
6.63911
-1.43407
-3.28991
-4.55467
-5.07794
-5.98797
-6.13013
-5.8163
-6.33009
-7.68335
-6.98805
-6.63939
-6.17985
-5.67798
-6.57972
-7.32051
-6.50447
-6.41726
-6.36469
-6.12377
-5.77419
-4.73007
-1.53465
2.16303
-2.94032
-4.16948
-5.76347
-6.24062
-6.62516
-6.66551
-6.16804
-5.51406
-5.10155
-5.841
-5.6774
-6.33254
-6.64704
-5.49342
-6.62493
-6.19273
-6.29143
-5.78923
-6.07227
-5.04991
-4.86829
-7.17224
-4.14544
-6.02409
-6.37525
-7.24624
-7.96275
-7.7031
-7.53436
-6.54236
-5.643
-4.84469
-4.37575
-4.65061
-5.34064
-5.5791
-5.83639
-6.04011
-6.01814
-6.02978
-5.71894
-5.85505
-5.34465
-4.8756
-10.7315
-10.0804
-8.66869
-9.28338
-9.87794
-9.61149
-8.27157
-7.84056
-6.66989
-6.07568
-5.4235
-5.02127
-4.76263
-5.09672
-5.44974
-5.86383
-5.86538
-5.81532
-5.4584
-5.32979
-5.74988
-4.96171
-4.91794
-10.1792
-11.0478
-11.736
-11.6314
-10.7704
-10.1259
-8.83241
-8.09851
-7.34231
-6.40563
-5.95929
-5.14744
-4.97348
-5.58173
-5.46576
-5.75032
-5.78294
-5.66568
-5.70034
-5.55167
-5.72462
-4.87857
-5.24542
-9.71098
-9.80945
-11.8566
-11.1834
-10.2389
-10.0638
-8.88842
-8.11787
-7.52434
-6.76393
-6.11569
-5.70487
-5.41839
-5.29546
-5.53892
-5.42199
-5.45216
-5.42565
-5.23059
-5.0954
-4.96781
-4.92087
-4.64637
-11.3369
-11.6066
-11.0318
-10.85
-9.55243
-9.153
-8.51275
-7.85117
-7.34315
-6.81594
-6.25398
-5.83868
-5.42225
-5.3523
-5.35974
-5.33934
-5.49834
-5.29962
-4.91579
-4.80351
-4.73473
-4.57356
-4.57339
-10.1238
-10.0706
-10.0542
-9.98047
-8.83731
-8.37437
-7.91218
-7.41133
-7.14119
-6.82076
-6.48405
-5.64833
-5.40421
-5.39413
-5.30891
-4.93358
-5.6675
-5.70923
-4.66814
-4.71322
-4.61962
-4.83618
-4.69613
-7.48729
-8.50657
-8.93091
-8.2906
-7.75049
-7.59293
-7.34779
-7.08395
-6.79624
-6.5215
-6.15793
-5.75726
-5.59345
-5.53578
-5.41
-5.32761
-5.37429
-5.26889
-4.85958
-4.81991
-4.76083
-4.77623
-4.7687
-5.71765
-6.61338
-6.87175
-6.85894
-6.84547
-6.84017
-6.73156
-6.62742
-6.48575
-6.24965
-5.96882
-5.70474
-5.60695
-5.50852
-5.43877
-5.02007
-5.50769
-5.22088
-5.22115
-4.84146
-4.80988
-4.79109
-4.66994
-5.23017
-5.88301
-6.0522
-6.25844
-6.26992
-6.31866
-6.29551
-6.30615
-6.36025
-6.08671
-5.85423
-5.71707
-5.6384
-5.54547
-5.49882
-5.36701
-5.43881
-5.28002
-5.13396
-4.98533
-4.93237
-4.9837
-4.79649
-4.53869
-5.28628
-5.46376
-5.82019
-5.89342
-6.01419
-6.06678
-6.07901
-6.11482
-5.93716
-5.82369
-5.70075
-5.57418
-5.49865
-5.42506
-5.34932
-5.09205
-5.37295
-5.13566
-5.17592
-4.98067
-5.09424
-5.09182
-5.92304
-5.46726
-5.3602
-5.6191
-5.65792
-5.76687
-5.81008
-5.80094
-5.79159
-5.62485
-5.99485
-5.69121
-5.45126
-5.45928
-5.60961
-5.40042
-5.4707
-5.24758
-5.23944
-5.17497
-5.14294
-5.11687
-5.15968
-5.59698
-5.25346
-5.4573
-5.54831
-5.60727
-5.69763
-5.73691
-5.77436
-5.78183
-5.78763
-5.70733
-5.58997
-5.51724
-5.59969
-5.56872
-5.45896
-5.36059
-5.40082
-5.25073
-5.31116
-5.26672
-5.23492
-5.32819
-5.40286
-5.36413
-5.47982
-5.52665
-5.58613
-5.66653
-5.68154
-5.71797
-5.68694
-5.69038
-5.58269
-5.78408
-5.55482
-5.69484
-5.72251
-5.45568
-5.54886
-5.47189
-5.47206
-5.39936
-5.41204
-5.34088
-5.34951
-5.57381
-5.54507
-5.59619
-5.61379
-5.6266
-5.68055
-5.67394
-5.69227
-5.6813
-5.66356
-5.70416
-5.58743
-5.7152
-5.55312
-5.61104
-5.6035
-5.45725
-5.54336
-5.54492
-5.52603
-5.46392
-5.52608
-5.42869
-5.63046
-5.61219
-5.61381
-5.64129
-5.58137
-5.84305
-5.80824
-5.82909
-5.80957
-5.79266
-5.74866
-5.77418
-5.74274
-5.75095
-5.79366
-5.61197
-5.62083
-5.52398
-5.72789
-5.58317
-5.70149
-5.53284
-5.71324
-6.09423
-6.04223
-5.98821
-5.93538
-5.84959
-5.72506
-5.53428
-5.59066
-5.54513
-5.63543
-5.59439
-5.63663
-5.63287
-5.63723
-5.69043
-5.71822
-5.64011
-5.64104
-5.8587
-5.66746
-5.62945
-5.73812
-5.79716
203.371
217.74
176.684
171.17
116.152
71.3528
116.821
154.472
185.829
165.264
181.415
128.081
54.2105
35.0018
61.2768
71.7217
47.9334
22.7551
35.647
29.053
35.5708
20.2106
14.1938
16.1448
15.0645
10.2341
10.3089
8.70266
2.79612
8.35167
7.73619
6.72971
-7.74035
-14.0465
0.213248
2.19182
-4.77208
2.28466
0.163167
-0.148556
-11.8638
-11.0574
-0.303636
3.91828
-6.27536
-8.08414
0.0568794
-1.93574
-2.62392
-1.53515
-3.07221
-2.13005
-2.5964
-2.50835
-2.58509
-2.34148
-2.22844
-1.95494
-1.65771
-1.31317
-2.1414
-2.04086
-1.64256
-1.6435
-1.93278
-2.01508
-1.79154
-1.78265
-2.06868
-1.91035
-1.92935
-1.72632
-2.71774
-2.33674
-2.11634
-2.06567
-3.08084
-2.85397
-2.87647
-2.77636
-2.9608
-3.02537
-2.94516
-2.75009
-3.29957
-3.00094
-2.64482
-2.89167
-3.708
-3.63262
-3.63765
-3.45506
-3.76248
-3.63853
-3.62511
-3.80246
-3.87306
-3.59158
-3.5035
-3.51733
-4.58156
-4.0419
-3.85718
-3.81615
-4.61379
-4.31252
-3.81225
-3.68692
-4.9663
-5.07511
-4.69081
-4.34333
-4.69087
-4.82881
-4.78553
-4.63063
-5.01856
-4.95656
-4.75379
-4.81806
-4.71789
-4.55555
-4.33756
-4.39914
-4.79716
-4.66579
-4.63315
-4.6115
-4.80866
-4.77975
-4.77838
-4.79918
-4.74081
-4.82731
-4.7266
-4.67359
-4.85041
-4.9311
-4.9491
-5.02347
-4.89841
-4.9086
-4.89096
-4.88661
-5.14701
-5.01102
-5.09094
-4.98642
-5.31113
-5.44744
-5.39227
-5.40606
-5.45949
-5.34767
-5.35243
-5.3928
-5.3791
-5.35389
-5.41715
-5.52299
-5.82374
-5.82352
-5.81249
-5.71477
-5.73316
-5.7715
-5.82212
-5.95144
127.366
254.059
179.676
152.131
177.496
172.03
169.472
164.027
167.869
169.771
168.032
205.822
128.784
123.785
64.9972
72.8005
66.4931
72.7467
64.9512
144.13
164.568
103.533
133.039
151.124
165.383
152.878
156.431
158.324
162
167.365
152.584
136.049
62
53.9986
57.0793
56.9928
52.9867
56.0943
160.082
115.309
75.9186
99.5351
119.085
163.98
152.274
146.276
157.713
146.035
169.03
132.028
25.4715
34.7808
26.2745
17.237
20.4954
39.371
46.0598
75.6072
73.9863
88.7459
30.4268
81.118
121.534
130.008
152.894
137.323
121.305
84.8672
1.90423
33.1534
18.4884
36.352
38.5684
23.7053
35.8096
45.0898
24.7364
32.3103
17.4617
22.3225
49.7965
152.78
16.5112
83.7307
124.637
97.9918
76.72
53.2312
37.5717
5.8432
5.70535
11.6815
13.4824
27.9563
36.2791
14.5966
10.6326
10.9641
11.7053
27.2966
48.5824
30.5439
42.9162
82.1237
31.4973
107.732
3.11988
5.13214
3.73333
0.371542
-0.267287
0.731928
2.01095
6.74377
6.46192
6.23295
5.65477
0.283989
18.073
18.5918
24.5813
31.9612
36.6017
71.2024
18.3291
2.70957
-3.32525
-1.68857
-0.558439
-1.77001
-1.13653
-0.0585352
-0.203639
6.45196
6.14897
4.25369
2.71724
6.09506
10.8895
2.5895
4.70029
5.0303
18.9191
20.7342
4.95466
0.0594743
-1.99548
-1.92494
-2.00654
-1.85274
-1.27305
-0.307998
4.01777
4.6858
3.47193
3.73992
2.45597
2.09711
1.75675
3.87686
0.312643
7.30184
4.80322
5.35197
-0.810349
-2.16398
-2.97165
-2.85208
-2.96943
-2.00355
-1.20779
1.32347
1.79932
2.293
1.85053
1.51896
1.87999
2.15388
2.76393
3.82787
3.95018
3.40115
1.8807
-2.15859
-2.57008
-3.92583
-3.84832
-3.06047
-2.4688
-1.7387
1.99354
2.13131
0.905224
1.30083
1.34467
1.77805
1.77823
3.40309
2.18392
2.17095
2.30815
1.04175
-2.04905
-2.68615
-4.29689
-4.48003
-4.07298
-3.03056
-2.05065
1.61795
1.35044
0.396599
0.692693
0.717622
0.651888
1.39874
-0.143269
0.561693
-0.339133
2.16945
-2.32077
-2.46344
-3.57958
-4.72473
-6.09204
-4.94569
-3.21297
-2.06524
-0.483497
0.581634
0.188732
0.366241
0.283172
0.138234
0.009968
-0.900132
-1.07611
-1.75862
-2.15669
-3.1408
-4.70221
-2.73988
-5.26843
-6.12872
-4.13314
-2.48945
-1.65296
-1.51018
-0.385721
-0.0755654
-0.483207
-0.415065
-0.168191
-0.510253
0.373919
-1.16688
-2.61813
-0.90108
-4.22053
-0.0875469
-2.33717
2.93501
-3.59012
-1.22077
-1.04013
-1.32324
-1.20882
-0.499468
-0.472681
-0.558474
-0.695635
-0.432812
-0.741681
-0.519548
-0.745149
-0.57484
0.391188
-1.56668
0.0557009
-0.383949
2.39113
-2.39846
-3.65424
-1.86979
-1.71587
-1.49958
-0.702273
-0.988544
-0.985564
-1.12316
-1.10964
-1.27658
-0.967387
-0.753921
-0.619195
-0.479008
-0.891388
-0.208163
-0.327506
-0.0525415
-0.526265
-2.55264
-2.06104
-1.75427
-1.29746
-1.01555
-1.40219
-1.16331
-1.19247
-1.31408
-1.31066
-1.27468
-1.32091
-1.23488
-1.42971
-0.945357
-1.15415
-0.803772
-0.883521
-1.45559
-1.82281
-2.11002
-2.05691
-1.69579
-1.42812
-1.6218
-1.42095
-1.48516
-1.55137
-1.49576
-1.40025
-1.3269
-1.14698
-1.31907
-1.38596
-1.34454
-1.26689
-1.29212
-1.49521
-1.92711
-2.01942
-1.93098
-1.86511
-1.74352
-1.87818
-1.64484
-1.66199
-1.68286
-1.71629
-1.63777
-1.67032
-1.70735
-1.54016
-1.51426
-1.41943
-1.51117
-1.59026
-1.73882
-1.80265
-1.97314
-1.89912
-1.99227
-1.92189
-2.3032
-1.95884
-1.8255
-1.81568
-1.84478
-1.77153
-1.76737
-1.87136
-1.86975
-1.76804
-1.66837
-1.68814
-1.74153
-1.80334
-2.01883
-2.02456
-2.01451
-3.1097
-2.93526
-2.05416
-2.22808
-2.15015
-1.91994
-2.02084
-2.24179
-1.94897
-1.84784
-1.87483
-1.8698
-1.86193
-1.83091
-1.98766
-1.97063
-2.04891
-2.13969
-2.12796
-3.10366
-2.99613
-2.58202
-2.35542
-2.37556
-2.43129
-2.11465
-2.22696
-2.19343
-2.11938
-2.0414
-2.02356
-2.0711
-2.0718
-2.17062
-2.21212
-2.41623
-2.28356
-2.33053
-2.61224
-3.19952
-2.93764
-2.78452
-2.58081
-2.58482
-2.77062
-2.24758
-2.45251
-2.52364
-2.3372
-2.22371
-2.25232
-2.29693
-2.3504
-2.42673
-2.50876
-2.43695
-2.49598
-3.87143
-2.59011
-2.96036
-2.95982
-2.91528
-2.91685
-2.77384
-2.75142
-2.52472
-2.37994
-2.49786
-2.40659
-2.42504
-2.5186
-2.54231
-2.6107
-2.73848
-2.67151
-2.65549
-3.53941
-3.3137
-3.06379
-3.06161
-2.80235
-2.66406
-2.79741
-2.90356
-2.72522
-2.69735
-2.74031
-2.61546
-2.63332
-2.7084
-2.73382
-2.82195
-2.69537
-2.74234
-2.75453
-3.44417
-3.90513
-3.26397
-3.22825
-3.25021
-2.99682
-2.98025
-3.16916
-2.90434
-2.93594
-2.98159
-2.73611
-2.86827
-2.90279
-2.96925
-2.86909
-2.93447
-2.93003
-2.92065
-3.77077
-3.89694
-3.57685
-3.08521
-2.979
-2.95424
-2.87606
-3.26618
-3.06088
-2.85386
-3.22509
-3.0993
-3.07791
-3.09803
-3.1821
-3.1462
-3.14185
-3.08139
-3.07272
-3.92425
-3.46251
-3.80308
-4.05
-3.92026
-3.32148
-3.38422
-3.42991
-3.57643
-3.10538
-3.19345
-3.27813
-3.29529
-3.28014
-3.44489
-3.36714
-3.33253
-3.30121
-3.26801
-4.71721
-4.31767
-4.60848
-4.27763
-4.3894
-3.93608
-3.45665
-3.68236
-3.80834
-3.57784
-3.6455
-3.59562
-3.50685
-3.45442
-3.69433
-3.51859
-3.51753
-3.49905
-3.44202
-4.57281
-5.0073
-4.34735
-3.81031
-3.92414
-4.57903
-4.08282
-3.53685
-4.12113
-4.09224
-4.00731
-3.88853
-3.79275
-3.60448
-3.86067
-3.59017
-3.63785
-3.69879
-3.62808
-4.64707
-4.35665
-4.67995
-4.70435
-4.40887
-4.19851
-4.80028
-4.12364
-4.27331
-4.00769
-4.10678
-3.99492
-3.89516
-4.01888
-4.03855
-3.81272
-3.85557
-3.83499
-3.80408
-4.54414
-4.55677
-4.39363
-4.17772
-4.47378
-4.49205
-4.71158
-4.55736
-4.63849
-4.77329
-4.48702
-4.19709
-4.12147
-4.04509
-4.20764
-3.935
-4.0441
-3.99115
-3.99142
-4.99998
-4.63384
-4.15626
-4.49979
-4.63861
-4.67612
-4.4689
-5.05457
-5.02182
-4.97018
-4.70715
-4.68228
-4.44348
-4.43719
-4.13472
-4.23175
-4.16591
-4.20533
-4.17796
-4.55182
-4.85815
-5.05701
-4.93084
-4.89472
-4.92088
-5.09846
-5.44304
-5.25518
-5.18815
-4.95333
-4.60889
-4.55938
-4.3559
-4.33189
-4.33729
-4.43289
-4.35301
-4.36488
-4.82616
-4.98703
-5.14669
-4.94062
-4.99407
-4.78849
-5.54525
-5.34691
-5.31532
-5.19668
-5.03035
-4.9533
-4.75278
-4.44197
-4.55184
-4.5663
-4.57628
-4.51883
-4.53785
-4.86403
-4.91404
-4.8083
-5.03161
-5.22295
-5.76851
-5.76873
-5.49465
-5.31669
-5.27233
-5.08378
-5.16676
-4.98072
-4.96178
-4.79036
-4.81858
-4.76539
-4.76623
-4.72191
-4.92588
-5.02299
-5.08441
-5.06913
-5.25732
-5.86282
-5.18762
-5.49914
-5.41907
-5.29891
-5.20737
-5.04442
-4.96947
-5.12774
-4.93509
-4.91857
-4.89103
-4.87861
-4.87169
-5.51884
-5.26512
-5.09872
-4.96099
-5.25758
-5.04118
-5.27778
-5.38193
-5.49954
-5.44024
-5.3045
-5.24819
-5.42158
-5.32344
-5.12342
-5.09669
-5.07179
-5.0467
-5.017
-5.44116
-5.47737
-5.19302
-5.72766
-5.44042
-5.29334
-5.70656
-5.78209
-5.52056
-5.43651
-5.4324
-5.44799
-5.33851
-5.36745
-5.29557
-5.24459
-5.20348
-5.20117
-5.19886
-5.36635
-5.6329
-5.89263
-5.75145
-5.65144
-6.05654
-5.74294
-5.81033
-5.67071
-5.64154
-5.46642
-5.49111
-5.45423
-5.44554
-5.4301
-5.3753
-5.36898
-5.36493
-5.37405
-5.64507
-5.66915
-5.95342
-6.02126
-5.72128
-5.93839
-5.95972
-5.88676
-5.79655
-5.67663
-5.5219
-5.53902
-5.41157
-5.67553
-5.63368
-5.54363
-5.48838
-5.47314
-5.48906
-6.00307
-6.13233
-5.95204
-5.87507
-6.18549
-5.91786
-5.7758
-5.77289
-5.69772
-5.65782
-5.69712
-5.67148
-5.84915
-5.69972
-5.57525
-5.6272
-5.66974
-5.66729
-5.63414
)
;

boundaryField
{
    leftWall
    {
        type            calculated;
        value           nonuniform List<scalar> 
50
(
821.688
763.251
706.487
647.882
594.451
535.181
486.267
426.941
358.683
245.646
203.383
116.998
176.261
232.806
93.2716
-0.108774
22.617
10.3198
8.13303
4.07846
0.994918
-0.170004
0.38227
6.85646
12.4995
11.6627
11.7716
13.0298
13.474
13.905
12.8229
12.5503
4.9996
-1.53465
-7.17224
-10.7315
-10.1792
-9.71098
-11.3369
-10.1238
-7.48729
-5.71765
-5.23017
-4.53869
-5.92304
-5.59698
-5.40286
-5.57381
-5.63046
-6.09423
)
;
    }
    rightWall
    {
        type            calculated;
        value           nonuniform List<scalar> 
50
(
323.454
264.358
224.842
203.709
173.766
127.261
93.1609
79.1072
64.9512
56.0943
46.0598
45.0898
36.2791
6.74377
-0.203639
-0.307998
-1.20779
-1.7387
-2.05065
-2.06524
-1.65296
-1.32324
-1.71587
-1.75427
-2.05691
-1.93098
-1.89912
-2.01451
-2.12796
-2.33053
-2.49598
-2.65549
-2.75453
-2.92065
-3.07272
-3.26801
-3.44202
-3.62808
-3.80408
-3.99142
-4.17796
-4.36488
-4.53785
-4.72191
-4.87169
-5.017
-5.19886
-5.37405
-5.48906
-5.63414
)
;
    }
    lowerWall
    {
        type            calculated;
        value           nonuniform List<scalar> 
62
(
851.117
845.605
841.87
828.713
823.576
810.174
804.642
797.682
796.844
797.793
793.712
796.945
794.176
803.096
804.611
817.439
821.267
827.139
822.96
824.747
820.348
822.961
819.75
790.321
731.29
671.707
612.542
551.258
492.396
427.975
370.498
265.857
280.327
239.271
233.757
907.671
823.583
646.918
598.389
494.381
424.668
349.569
283.452
936.97
737.76
497.771
390.599
399.599
479.425
548.175
494.358
486.13
501.669
531.297
534.162
584.032
553.656
542.055
497.322
340.844
345.113
352.522
)
;
    }
    atmosphere
    {
        type            calculated;
        value           nonuniform List<scalar> 
46
(
-5.72904
-5.72904
-5.72904
-5.72904
-5.72904
-5.72904
-5.72904
-5.72904
-5.72904
-5.72904
-5.72904
-5.72904
-5.72904
-5.72904
-5.72904
-5.72904
-5.72906
-5.73361
-5.80261
-5.80486
-5.73264
-5.75923
-5.89259
-5.95046
-5.98639
-5.98642
-6.00555
-6.00068
-6.08742
-6.14217
-6.12648
-6.14413
-6.09756
-6.01484
-5.96268
-5.87827
-5.8042
-5.75257
-5.74268
-5.7338
-6.0123
-5.95616
-5.75763
-5.72948
-5.72904
-5.72904
)
;
    }
    defaultFaces
    {
        type            empty;
    }
}


// ************************************************************************* //
