/*--------------------------------*- C++ -*----------------------------------*\
| =========                 |                                                 |
| \\      /  F ield         | foam-extend: Open Source CFD                    |
|  \\    /   O peration     | Version:     4.1                                |
|   \\  /    A nd           | Web:         http://www.foam-extend.org         |
|    \\/     M anipulation  |                                                 |
\*---------------------------------------------------------------------------*/
FoamFile
{
    version     2.0;
    format      ascii;
    class       surfaceScalarField;
    location    "0.8";
    object      phi_0;
}
// * * * * * * * * * * * * * * * * * * * * * * * * * * * * * * * * * * * * * //

dimensions      [0 3 -1 0 0 0 0];

internalField   nonuniform List<scalar> 
4432
(
-3.01407e-06
3.01407e-06
-5.50451e-06
2.49045e-06
-7.05006e-06
1.54555e-06
-4.56614e-06
-2.48392e-06
-5.9555e-06
1.38936e-06
-7.78654e-06
1.83104e-06
-7.70582e-06
-8.07202e-08
-6.89776e-06
-8.08065e-07
-4.83221e-06
-2.06554e-06
-5.48055e-06
6.48338e-07
-5.07486e-06
-4.05693e-07
-2.04538e-06
-3.02948e-06
-3.58568e-06
1.5403e-06
-1.66763e-06
-1.91804e-06
-3.1954e-06
1.52777e-06
-5.73402e-07
-2.622e-06
8.15745e-07
-1.38915e-06
1.99818e-06
-1.18244e-06
2.64497e-06
-6.46789e-07
2.13559e-06
5.09384e-07
7.76567e-07
1.35902e-06
3.32153e-07
4.44414e-07
3.32153e-07
-1.56693e-06
4.581e-06
-1.72678e-06
2.65029e-06
-3.32801e-06
3.14678e-06
-5.04384e-06
-7.68094e-07
-5.8312e-06
2.17672e-06
-7.49842e-06
3.49826e-06
-7.23702e-06
-3.42126e-07
-5.53258e-06
-2.5125e-06
-8.14149e-06
5.43362e-07
-6.06249e-06
-1.43066e-06
-3.10068e-06
-3.3675e-06
-5.09157e-06
-1.03859e-06
-5.35587e-06
1.8046e-06
-3.29963e-06
-3.97428e-06
-3.48299e-06
1.71113e-06
-2.30098e-06
-3.80402e-06
-1.45962e-06
-2.23051e-06
4.95887e-07
-3.13794e-06
1.3915e-06
-1.5424e-06
1.15799e-06
7.42896e-07
-9.35358e-08
2.61054e-06
-8.13067e-07
1.16394e-06
-4.80913e-07
-2.9415e-06
7.5225e-06
-5.93224e-06
5.64103e-06
-8.26073e-06
5.47527e-06
-1.06633e-05
1.63449e-06
-1.28641e-05
4.37753e-06
-7.97176e-06
-1.3941e-06
-7.45112e-06
-8.62759e-07
-6.07095e-06
-3.89267e-06
-1.02652e-05
4.73759e-06
-5.01072e-06
-6.68512e-06
-8.53428e-06
1.56058e-07
-8.53183e-06
-1.04104e-06
-5.33235e-06
-1.39489e-06
-9.68854e-06
3.81907e-07
-5.18435e-06
-2.79306e-06
-9.17293e-06
1.84569e-07
-3.54993e-06
-7.85351e-06
-1.72691e-06
-4.96097e-06
-7.25246e-07
-2.54406e-06
-6.53617e-08
8.30121e-08
-7.20535e-07
3.26572e-06
-8.81908e-07
1.32532e-06
-1.36282e-06
-3.63421e-06
1.11567e-05
-5.25295e-06
7.25977e-06
-4.4747e-06
4.69702e-06
-5.21461e-06
2.37439e-06
-6.17698e-06
5.33991e-06
-8.40687e-06
8.35787e-07
-7.8464e-06
-1.42323e-06
-1.44152e-05
2.67609e-06
-7.83983e-06
-1.83774e-06
-1.36722e-05
-8.52719e-07
-1.46179e-05
1.1017e-06
-1.62717e-05
6.12747e-07
-1.69547e-05
-7.11859e-07
-1.74116e-05
8.38819e-07
-1.74252e-05
-2.77946e-06
-1.66887e-05
-5.51883e-07
-1.40147e-05
-1.05276e-05
-9.59537e-06
-9.38029e-06
-6.02847e-06
-6.11096e-06
-3.24386e-06
-2.7016e-06
-2.49838e-06
2.52024e-06
-1.78489e-06
6.11826e-07
-3.14771e-06
-4.02209e-06
1.51788e-05
-6.17755e-06
9.41523e-06
-8.17721e-06
6.69668e-06
-9.93704e-06
4.13423e-06
-6.83525e-06
2.23812e-06
-9.56413e-06
3.56467e-06
-9.38252e-06
-1.60483e-06
-9.44117e-06
2.73474e-06
-9.2704e-06
-2.00851e-06
-1.55324e-05
5.40932e-06
-1.72783e-05
2.84756e-06
-1.94621e-05
2.79651e-06
-2.04002e-05
2.26276e-07
-2.06728e-05
1.11143e-06
-2.14182e-05
-2.03407e-06
-2.06711e-05
-1.29902e-06
-1.77752e-05
-1.34235e-05
-1.49059e-05
-1.22496e-05
-1.24159e-05
-8.60094e-06
-9.00764e-06
-6.10986e-06
-5.64767e-06
-8.39734e-07
-2.58151e-06
-2.45434e-06
-5.72922e-06
-2.69938e-06
1.78782e-05
-7.96226e-06
1.46781e-05
-1.15772e-05
1.03116e-05
-1.33551e-05
5.91212e-06
-8.00644e-06
-3.11054e-06
-1.0511e-05
6.06918e-06
-1.03368e-05
-1.77899e-06
-9.59242e-06
1.99036e-06
-1.91421e-05
7.54117e-06
-2.00234e-05
6.29063e-06
-2.14266e-05
4.25075e-06
-2.14486e-05
2.81846e-06
-2.17706e-05
5.48336e-07
-2.13458e-05
6.86658e-07
-2.07113e-05
-2.66863e-06
-2.08661e-05
-1.14423e-06
-1.97265e-05
-1.4563e-05
-1.66553e-05
-1.53208e-05
-1.42092e-05
-1.10471e-05
-1.36401e-05
-6.679e-06
-5.794e-06
-8.6858e-06
-2.75795e-06
-5.49039e-06
-8.48717e-06
-3.43241e-06
2.13106e-05
-2.80589e-06
1.40516e-05
-6.06767e-06
1.35734e-05
-7.70772e-06
7.55216e-06
-7.80606e-06
-3.0122e-06
-1.00658e-05
8.32896e-06
-2.06847e-05
8.83985e-06
-2.10432e-05
2.3489e-06
-2.06072e-05
7.10519e-06
-2.04964e-05
6.17978e-06
-2.12869e-05
5.04123e-06
-2.14871e-05
3.01865e-06
-2.14643e-05
5.25601e-07
-2.13523e-05
5.74631e-07
-2.25339e-05
-1.48703e-06
-2.4007e-05
3.2889e-07
-1.97671e-05
-1.88029e-05
-1.57261e-05
-1.93618e-05
-1.34568e-05
-1.33163e-05
-1.37334e-05
-6.40235e-06
-1.20659e-05
-1.03533e-05
-5.25895e-06
-1.22974e-05
-1.37461e-05
-2.45814e-06
2.37687e-05
-8.87462e-06
2.04681e-05
-1.5453e-05
2.01518e-05
-1.84663e-05
1.05654e-05
-2.01608e-05
-1.31769e-06
-1.28375e-05
1.00571e-06
-1.22668e-05
8.26915e-06
-2.06619e-05
1.0744e-05
-2.16167e-05
8.05993e-06
-2.36251e-05
8.18825e-06
-2.32756e-05
4.69168e-06
-2.25087e-05
2.25171e-06
-2.30305e-05
1.04746e-06
-2.33976e-05
9.41732e-07
-2.54007e-05
5.16051e-07
-2.83259e-05
3.2541e-06
-1.92607e-05
-2.78681e-05
-1.40196e-05
-2.46029e-05
-1.2125e-05
-1.52109e-05
-1.44897e-05
-4.03771e-06
-1.45226e-05
-1.03204e-05
-4.80461e-06
-2.20153e-05
-1.85507e-05
-5.66201e-05
5.66201e-05
-9.09124e-05
3.42923e-05
-0.000112987
2.20746e-05
-0.000120028
7.04108e-06
-0.000113755
-6.27278e-06
-9.10508e-05
-2.27045e-05
-7.36565e-05
-1.73943e-05
-6.9464e-05
-4.19246e-06
-6.02574e-05
-9.20664e-06
-4.75216e-05
-1.27358e-05
-3.81345e-05
-9.38711e-06
-2.69679e-05
-1.11666e-05
-1.18944e-05
-1.50734e-05
-1.19386e-06
-1.07006e-05
7.89844e-06
-9.0923e-06
1.10758e-05
-3.17738e-06
-2.78008e-06
1.38559e-05
-8.7699e-06
5.98983e-06
-8.7699e-06
-4.67202e-05
0.00010334
-7.1749e-05
5.93211e-05
-9.32746e-05
4.36002e-05
-9.91724e-05
1.29388e-05
-7.39463e-05
-3.14989e-05
-4.1913e-05
-5.47378e-05
-3.17598e-05
-2.75475e-05
-3.46795e-05
-1.27267e-06
-3.07251e-05
-1.31611e-05
-2.23453e-05
-2.11157e-05
-1.45897e-05
-1.71427e-05
-4.01065e-06
-2.17456e-05
5.96937e-06
-2.50535e-05
7.49136e-06
-1.22226e-05
6.07125e-06
-7.67219e-06
1.48154e-05
-1.19215e-05
-4.0511e-07
2.90764e-05
-1.2177e-05
1.77617e-05
-2.09469e-05
-2.39001e-05
0.00012724
-5.85045e-05
9.39255e-05
-6.04851e-05
4.55808e-05
-4.72327e-05
-3.13526e-07
-2.82232e-05
-5.05084e-05
-1.54793e-05
-6.74816e-05
6.29817e-06
-4.93251e-05
2.02448e-05
-1.52193e-05
1.36634e-05
-6.5797e-06
2.00304e-05
-2.74826e-05
3.98684e-05
-3.69808e-05
3.88815e-05
-2.07587e-05
2.25652e-05
-8.73724e-06
3.90307e-05
-2.8688e-05
4.34801e-05
-1.21216e-05
3.48513e-05
-3.29269e-06
4.35383e-05
2.03894e-05
1.41643e-05
4.71356e-05
-6.78253e-06
-1.93341e-05
0.000146575
-4.01902e-05
0.000114782
-1.49695e-05
2.036e-05
-1.17628e-05
-3.52022e-06
-6.9242e-06
-5.5347e-05
-7.98476e-06
-6.64211e-05
7.7453e-06
-6.50551e-05
2.39666e-05
-3.14406e-05
3.51552e-05
-1.77683e-05
2.27485e-05
-1.50758e-05
2.63543e-05
-4.05866e-05
2.70361e-05
-2.14404e-05
5.21562e-05
-3.38574e-05
4.75347e-05
-2.40665e-05
5.01237e-05
-1.47106e-05
4.68919e-05
-6.08967e-08
6.50482e-05
2.23309e-06
3.31822e-05
7.90017e-05
2.63997e-05
-1.43035e-05
0.000160878
-1.83466e-05
0.000118825
-1.4064e-05
1.60774e-05
1.39467e-06
-1.89788e-05
3.87214e-06
-5.78245e-05
-2.26824e-07
-6.23221e-05
3.92823e-06
-6.92102e-05
2.36174e-05
-5.11298e-05
3.7515e-05
-3.16659e-05
4.27691e-05
-2.03299e-05
2.60278e-05
-2.38453e-05
5.31405e-05
-4.85532e-05
5.27435e-05
-3.34603e-05
5.28281e-05
-2.41512e-05
5.37228e-05
-1.56052e-05
4.05485e-05
1.31134e-05
2.86178e-05
1.41637e-05
2.11005e-05
8.6519e-05
4.75002e-05
-1.00219e-05
0.0001709
-3.03231e-06
0.000111835
8.15321e-06
4.89187e-06
2.1197e-05
-3.20226e-05
2.10615e-05
-5.7689e-05
8.80617e-06
-5.00667e-05
9.77157e-06
-7.01756e-05
1.14217e-05
-5.27799e-05
3.28001e-05
-5.30443e-05
3.54547e-05
-2.29846e-05
3.87806e-05
-2.71712e-05
4.06941e-05
-5.04667e-05
4.71799e-05
-3.99461e-05
5.0037e-05
-2.70082e-05
5.14374e-05
-1.70057e-05
3.23227e-05
3.22281e-05
3.82772e-05
8.20916e-06
1.1696e-05
0.0001131
5.91962e-05
-6.44728e-06
0.000177347
5.45337e-06
9.99346e-05
2.87882e-05
-1.8443e-05
4.13491e-05
-4.45835e-05
1.42339e-05
-3.05738e-05
2.03576e-05
-5.61904e-05
3.03977e-05
-8.02157e-05
1.38469e-05
-3.6229e-05
1.29256e-05
-5.2123e-05
3.12763e-05
-4.13352e-05
3.1903e-05
-2.7798e-05
1.45148e-05
-3.30785e-05
3.3811e-05
-5.92423e-05
4.24737e-05
-3.56709e-05
4.39807e-05
-1.85128e-05
4.63383e-05
2.98706e-05
1.98503e-05
3.46972e-05
1.96868e-05
0.000113264
7.8883e-05
-7.12659e-06
0.000184474
2.33309e-05
6.94771e-05
2.36542e-05
-1.87663e-05
2.55802e-05
-4.65095e-05
2.94028e-05
-3.43964e-05
2.31778e-05
-4.99654e-05
1.92289e-05
-7.62668e-05
1.76758e-05
-3.4676e-05
2.38252e-05
-5.82724e-05
2.61007e-05
-4.36107e-05
2.95204e-05
-3.12177e-05
2.58303e-05
-2.93884e-05
1.25789e-05
-4.59908e-05
1.07026e-05
-3.37947e-05
9.8721e-06
-1.76822e-05
3.1847e-05
7.89567e-06
3.54083e-05
3.11359e-05
3.89621e-05
0.00010971
0.000117845
-2.64173e-07
2.40329e-05
-3.68807e-06
2.3892e-05
-1.64954e-05
3.29592e-05
-2.39899e-05
1.80599e-05
-3.98672e-05
1.45596e-05
-4.00697e-05
1.20813e-06
-4.56088e-05
1.38083e-05
-4.76857e-05
1.28209e-05
-4.8675e-05
9.04922e-06
-4.63883e-05
5.90154e-06
-4.5652e-05
3.95535e-06
-4.63687e-05
2.96849e-06
-4.73064e-05
1.98516e-06
-4.80823e-05
1.71759e-06
-5.80984e-05
1.05322e-05
-4.01216e-05
-1.47227e-05
-5.17169e-05
-1.62728e-05
-3.39582e-05
-4.23616e-05
-1.66871e-05
-3.2482e-05
-1.27095e-05
-8.01529e-06
-1.63263e-05
-6.70357e-06
-2.00221e-06
-3.63395e-05
-3.65476e-05
1.59946e-05
-4.36152e-05
6.76481e-05
-5.83051e-05
3.85818e-05
-3.72128e-05
1.18669e-05
-3.38257e-05
1.46729e-05
-2.21053e-05
2.83923e-06
-2.65794e-05
5.6822e-06
-3.1414e-05
1.86429e-05
-4.29538e-05
2.43606e-05
-4.61462e-05
1.22416e-05
-4.46918e-05
4.44715e-06
-4.12692e-05
5.32763e-07
-4.01127e-05
1.812e-06
-3.90801e-05
9.52571e-07
-4.81719e-05
1.08093e-05
-4.41438e-05
6.50414e-06
-5.58293e-05
-3.03719e-06
-4.4242e-05
-2.78601e-05
-3.29685e-05
-5.36352e-05
9.62094e-06
-7.50715e-05
1.11297e-05
-9.52405e-06
-1.93522e-05
2.37783e-05
-4.70418e-05
-8.64984e-06
-3.38744e-05
-4.9715e-05
-6.91926e-06
7.45674e-05
7.36827e-06
2.42943e-05
-4.73052e-06
2.39657e-05
-5.15572e-06
1.50981e-05
-1.03581e-05
8.04158e-06
-7.0705e-06
2.39465e-06
4.19964e-06
7.37281e-06
-8.93666e-06
3.74969e-05
-3.84863e-05
4.17913e-05
-4.2203e-05
8.16388e-06
-2.81312e-05
-1.35391e-05
-3.67854e-05
1.04662e-05
-6.57322e-05
2.98993e-05
-0.000136058
8.1135e-05
-0.000227608
9.80545e-05
-0.0002137
-1.69455e-05
-0.000126345
-0.000115215
-9.09844e-05
-8.89957e-05
-3.26737e-05
-0.000133382
-1.69466e-05
-2.52511e-05
-1.56338e-05
2.24655e-05
-2.92687e-05
4.98507e-06
-5.12609e-06
-5.8017e-05
7.82179e-06
6.67456e-05
3.92372e-05
-7.12108e-06
4.50089e-05
1.81939e-05
2.97906e-06
5.71278e-05
-5.84935e-05
6.95142e-05
-6.94648e-05
1.33659e-05
-9.18405e-05
2.97486e-05
-0.000147279
9.29355e-05
-0.000129889
2.44011e-05
-6.70964e-05
-5.46285e-05
3.68594e-05
-0.000117495
0.000116083
-6.87578e-05
1.63915e-06
0.000144344
-0.00019635
0.000279124
-0.000174442
7.6147e-05
-0.000113732
-7.76558e-05
-0.000146999
-8.19475e-05
-9.26654e-05
-0.00014333
-9.07802e-05
-0.000135267
-4.24232e-05
-7.36081e-05
-3.42947e-05
1.43369e-05
-5.40043e-05
2.46947e-05
4.15195e-05
-0.00010065
-5.46494e-05
0.000121395
-0.000116612
5.48419e-05
-0.000176525
7.81063e-05
-0.000190353
7.09563e-05
-0.000225524
0.000104685
-0.00035838
0.000146223
-0.00044991
0.000121278
-0.000404979
4.80049e-05
-0.000323657
-5.69213e-05
-0.000256243
-0.000122043
-0.000167696
-0.000206042
-6.83097e-05
-0.000168144
-9.24276e-05
0.000168461
-0.000124681
0.000311378
-0.000196291
0.000147757
-0.00020739
-6.65572e-05
-0.00016402
-0.000125317
-0.000163628
-0.000143721
-0.000165161
-0.000133734
-0.000154357
-8.44126e-05
-0.000143769
3.74939e-06
-0.000135558
1.64829e-05
2.5139e-05
-0.000119177
-0.000143467
0.000264862
-0.000232162
0.000143537
-0.000281645
0.000127589
-0.000321159
0.00011047
-0.000471458
0.000254984
-0.00056709
0.000241855
-0.00053898
9.31684e-05
-0.000437752
-5.32223e-05
-0.000387713
-0.00010696
-0.000298616
-0.00021114
-0.000279873
-0.000224785
-0.000271536
-0.000176481
-0.000218928
0.000115854
-0.000183006
0.000275455
-0.000143907
0.000108658
-0.000115856
-9.46083e-05
-0.000103189
-0.000137984
-0.000101229
-0.000145681
-0.000108051
-0.000126913
-0.000163627
-2.88364e-05
-0.000153255
-6.62223e-06
-0.000142767
5.99523e-06
-2.91997e-06
-0.000114709
-0.000207896
0.000472758
-0.000270134
0.000205774
-0.000369022
0.000226477
-0.000462541
0.00020399
-0.000535471
0.000327914
-0.000519807
0.00022619
-0.00050097
7.43309e-05
-0.000435309
-0.000118883
-0.000369055
-0.000173215
-0.000334109
-0.000246086
-0.000322782
-0.000236112
-0.000344336
-0.000154927
-0.00032698
9.84981e-05
-0.000256213
0.000204687
-0.000203461
5.59059e-05
-0.000215652
-8.24167e-05
-0.000230211
-0.000123425
-0.000199269
-0.000176624
-0.000181165
-0.000145016
-0.000169666
-4.03354e-05
-0.00015115
-2.51385e-05
-0.000114268
-3.08869e-05
-3.10546e-05
-8.61329e-05
-0.00018151
0.000654268
-0.000256517
0.000280781
-0.000277965
0.000247926
-0.000471754
0.000397779
-0.000469686
0.000325846
-0.00042794
0.000184444
-0.000368918
1.53089e-05
-0.000341295
-0.000146506
-0.00031912
-0.000195389
-0.000363072
-0.000202135
-0.000404723
-0.000194461
-0.0004158
-0.00014385
-0.000355005
3.77032e-05
-0.000273274
0.000122956
-0.00026634
4.89714e-05
-0.000261025
-8.77309e-05
-0.000266179
-0.000118272
-0.000248316
-0.000194486
-0.000210379
-0.000182953
-8.78674e-05
-0.000162847
-6.30425e-05
-4.99634e-05
-8.14426e-05
-1.24869e-05
-1.37825e-05
-9.87147e-05
-0.000162896
0.000817164
-0.000247502
0.000365386
-0.000325133
0.000325557
-0.000361239
0.000433884
-0.000423553
0.00038816
-0.000372138
0.000133029
-0.000346998
-9.83052e-06
-0.000360669
-0.000132836
-0.000352387
-0.000203671
-0.00040065
-0.000153871
-0.000441623
-0.000153488
-0.000431141
-0.000154332
-0.000365658
-2.77798e-05
-0.000300955
5.82539e-05
-0.000278139
2.61549e-05
-0.000292577
-7.32922e-05
-0.000280236
-0.000130613
-0.0002685
-0.000206223
-0.000241894
-0.000209558
-0.000180666
-0.000224076
-0.000107315
-0.000123314
-7.99287e-05
-3.98732e-05
-4.68125e-05
-4.68988e-05
-0.000151822
0.000968986
-0.000245065
0.00045863
-0.000363605
0.000444097
-0.000381512
0.000451791
-0.00037019
0.000376839
-0.000430779
0.000193617
-0.00045077
1.01611e-05
-0.00045025
-0.000133356
-0.000441116
-0.000212805
-0.000437559
-0.000157428
-0.000427252
-0.000163795
-0.000407873
-0.000173711
-0.000328854
-0.000106798
-0.000256209
-1.43908e-05
-0.000218437
-1.16178e-05
-0.000227703
-6.40255e-05
-0.000250497
-0.000107819
-0.00025103
-0.00020569
-0.000247226
-0.000213362
-0.000242019
-0.000229282
-0.000227416
-0.000137917
-0.000159533
-0.000107756
-9.6896e-05
-0.00010945
-0.000157079
0.00112607
-0.000295992
0.000597543
-0.000358386
0.000506491
-0.000361251
0.000454656
-0.000371111
0.000386698
-0.000424075
0.000246581
-0.000450239
3.63255e-05
-0.000448807
-0.000134787
-0.000447596
-0.000214017
-0.000452288
-0.000152736
-0.000389576
-0.000226507
-0.000425655
-0.000137633
-0.00035299
-0.000179463
-0.000242091
-0.00012529
-0.000129141
-0.000124567
-0.000113284
-7.98831e-05
-0.000103369
-0.000117734
-0.000191548
-0.000117512
-0.000183414
-0.000221496
-0.000253324
-0.000159372
-0.000247644
-0.000143597
-0.000227692
-0.000127708
-0.000109542
-0.000215047
-0.0001569
0.00128296
-0.000321566
0.000762209
-0.000376258
0.000561183
-0.000290309
0.000368707
-0.000267986
0.000364375
-0.000182764
0.00016136
-0.000176714
3.02752e-05
-0.000283761
-2.77402e-05
-0.000328497
-0.000169281
-0.000329976
-0.000151256
-0.000344548
-0.000211935
-0.000233967
-0.000248214
-0.00022324
-0.000190189
-0.000179065
-0.000169465
-0.000233248
-7.03852e-05
-0.000231522
-8.16083e-05
-0.000244129
-0.000105127
-0.000236755
-0.000124886
-0.000261634
-0.000196618
-0.000286095
-0.000134911
-0.000288554
-0.000141138
-0.000150158
-0.000266104
-0.000120689
-0.000139012
-6.32568e-05
0.00134622
-0.000196387
0.00089534
-0.000253038
0.000617833
-0.000161126
0.000276795
-8.55378e-05
0.000288787
-2.96183e-05
0.00010544
1.18137e-05
-1.11566e-05
4.0713e-05
-5.66396e-05
-2.40109e-05
-0.000104557
-0.0001551
-2.01669e-05
-0.00019357
-0.000173465
-0.000357966
-8.38185e-05
-0.000367962
-0.000180193
-0.000372305
-0.000165122
-0.00031111
-0.00013158
-0.000330544
-6.21749e-05
-0.000341802
-9.38685e-05
-0.000315328
-0.000151359
-0.000335271
-0.000176675
-0.000368185
-0.000101997
-0.000314951
-0.000194371
-0.000316065
-0.00026499
-0.000277513
-0.00015924
0.00014011
0.00120611
6.60392e-05
0.000969411
5.06058e-05
0.000633267
0.000140792
0.000186609
0.00016206
0.000267519
0.000227911
3.9589e-05
0.000210006
6.74745e-06
0.000177289
-2.39217e-05
0.00010701
-3.42788e-05
9.91772e-05
-1.23335e-05
-3.87855e-05
-3.55023e-05
-0.000153349
3.07445e-05
-0.00030384
-2.97019e-05
-0.000357225
-0.000111737
-0.000327803
-0.000161001
-0.000220778
-0.0001692
-0.000217532
-9.7115e-05
-0.000307084
-6.18072e-05
-0.000318746
-0.000165012
-0.000214274
-0.000206469
-0.0002235
-0.000185145
-0.000342138
-0.000146352
-0.000211163
-0.000408487
0.000238932
0.00096718
0.000380915
0.000827428
0.000446516
0.000567665
0.000285135
0.000347991
0.000449059
0.000103595
0.000489904
-1.25594e-06
0.000456446
4.02055e-05
0.000456528
-2.40039e-05
0.000431957
-9.70792e-06
0.000365407
5.42168e-05
0.000203067
0.000126838
9.80066e-05
0.000135805
-6.59369e-05
0.000134242
-9.16881e-05
-8.59856e-05
-0.000113392
-0.000139297
-0.000264116
-1.84759e-05
-0.000310744
-5.04868e-05
-0.000311117
-6.14339e-05
-0.000314042
-0.000162088
-0.000328436
-0.000192075
-0.000385214
-0.000128367
-0.000342035
-0.000189532
-0.000130424
-0.000422773
0.000366667
0.000600513
0.000471791
0.000722304
0.000469131
0.000570325
0.000435645
0.000381477
0.000520648
1.85922e-05
0.000588748
-6.93562e-05
0.000688033
-5.90796e-05
0.000736132
-7.21028e-05
0.000728516
-2.0918e-06
0.000617032
0.000165701
0.000550085
0.000193784
0.000499502
0.000186387
0.000369909
0.000263835
7.01237e-05
0.0002138
-4.7774e-05
-2.13991e-05
-0.000121366
5.5116e-05
-0.000156207
-1.56457e-05
-0.000157816
-5.98249e-05
-0.000249255
-7.06489e-05
-0.000317018
-0.000124312
-0.000319283
-0.000126103
-0.000304333
-0.000204482
-0.000119971
-0.000314786
0.000263709
0.000336803
0.000365581
0.000620433
0.00066004
0.000275866
0.000682164
0.000359353
0.000599692
0.000101065
0.00066706
-0.000136725
0.000783013
-0.000175033
0.000807472
-9.65613e-05
0.000702767
0.000102613
0.000628221
0.000240247
0.000563438
0.000258567
0.000461978
0.000287847
0.000247925
0.000477889
5.99162e-05
0.000401808
-0.00012521
0.000163727
-0.000211306
0.000141212
-0.000268318
4.13662e-05
-0.000285246
-4.28974e-05
-0.000262844
-9.3051e-05
-0.00029214
-9.50153e-05
-0.000297724
-0.00012052
-0.000297949
-0.000204256
-0.000173738
-0.000244183
0.000157833
0.000178971
0.000295274
0.000482992
0.000465195
0.000105944
0.0007489
7.56478e-05
0.000831612
1.83528e-05
0.000744877
-4.99893e-05
0.00054674
2.31042e-05
0.000352465
9.77138e-05
0.000276073
0.000179005
0.000326331
0.00018999
0.00034541
0.000239487
0.000282346
0.000350911
0.000213906
0.000546329
0.000128525
0.00048719
-1.20202e-05
0.000304272
-0.000103516
0.000232709
-0.00021857
0.00015642
-0.000281606
2.01392e-05
-0.000303549
-7.11088e-05
-0.000318793
-7.97707e-05
-0.000251698
-0.000187615
-0.00024438
-0.000211574
-0.000190266
-0.000227851
5.58821e-05
0.000123088
0.000268168
0.000270707
0.000337551
3.65608e-05
0.000353378
5.98213e-05
0.000229693
0.000142037
3.17132e-05
0.000147991
-1.32636e-05
6.80809e-05
3.94877e-05
4.49625e-05
9.92106e-05
0.000119282
0.000142316
0.000146885
0.00014155
0.000240253
0.000205825
0.000286636
0.000152962
0.000599191
9.06787e-05
0.000549473
-2.92921e-06
0.00039788
-9.40061e-05
0.000323785
-0.000178346
0.00024076
-0.000246023
8.78156e-05
-0.000300484
-1.66479e-05
-0.000313386
-6.6869e-05
-0.000268961
-0.000232039
-0.00019116
-0.000289376
-0.000177625
-0.000203801
-0.000108483
0.000231571
-5.11182e-05
0.000213342
-8.82145e-05
7.3657e-05
-7.59159e-05
4.75227e-05
7.14678e-06
5.89746e-05
1.72429e-05
0.000137895
5.15721e-06
8.01666e-05
9.34465e-06
4.07751e-05
-7.88573e-06
0.000136512
2.80962e-05
0.000110903
8.32946e-05
0.000185055
5.68156e-05
0.000313115
7.48767e-06
0.000648519
-0.00011334
0.000670301
-3.1652e-05
0.000316192
-0.000136419
0.000428553
-9.95885e-05
0.000203929
-0.000263798
0.000252025
-0.000289846
9.4007e-06
-0.000194626
-0.000162089
-0.000173901
-0.000252764
-0.000176691
-0.000286587
-0.000213793
-0.000140522
-0.000107359
0.00033893
-9.05992e-05
0.000196583
-0.000114912
9.79699e-05
-0.000124366
5.6977e-05
-8.47432e-05
1.93513e-05
-2.87574e-05
8.1909e-05
-2.28195e-05
7.42287e-05
-2.45603e-05
4.25158e-05
-1.14961e-05
0.000123448
-7.03442e-06
0.000106441
-3.75112e-05
0.000215531
-0.000241117
0.000516721
-0.000259056
0.000666459
-0.000266284
0.000677529
-0.00024914
0.000299048
-0.000253355
0.000432767
-0.000282718
0.000233293
-0.000298143
0.000267449
-0.000287084
-1.65773e-06
-0.000285405
-0.000163768
-0.00027128
-0.000266889
-0.000232169
-0.000325697
-0.000337173
-0.00010879
-0.000148969
0.000487899
-0.000166885
0.000214499
-0.000170955
0.000102039
-0.000158526
4.45481e-05
-0.000166334
2.71596e-05
-0.000170764
8.63388e-05
-0.000173629
7.70934e-05
-0.000159838
2.87249e-05
-0.00011011
7.37198e-05
-0.000120177
0.000116509
-0.000200751
0.000296105
-0.000201164
0.000517133
-0.00020443
0.000669725
-0.000171739
0.000644838
-0.000305504
0.000432813
-0.000155148
0.000282411
-0.000247049
0.000325194
-0.000165875
0.000186275
-8.97692e-05
-7.77639e-05
-0.000162334
-9.12032e-05
-0.000137504
-0.000291719
-8.86179e-05
-0.000374583
-0.000367695
-5.80958e-05
-6.48721e-05
0.000552771
-9.30638e-05
0.000242691
-0.000115653
0.000124628
-0.000136501
6.53962e-05
-0.00017147
6.21286e-05
-0.000189491
0.00010436
-0.000167208
5.48096e-05
-0.00022992
9.14371e-05
-0.000231617
7.54168e-05
-0.000350085
0.000234977
-0.000233932
0.000179951
-0.000255399
0.000538601
-0.000225462
0.000639788
-0.000201609
0.000620984
-0.000162842
0.000394046
-0.000201318
0.000320887
-0.000128715
0.000252591
-1.67375e-05
7.42971e-05
1.40681e-05
-0.00010857
2.76718e-05
-0.000104807
-5.02215e-05
-0.000213826
-2.51593e-05
-0.000399645
-0.000389782
-3.0724e-06
-0.000135166
0.000687938
-0.000174518
0.000282043
-0.000229155
0.000179265
-0.000328954
0.000165195
-0.000432254
0.000165429
-0.000423628
9.57349e-05
-0.000430545
6.17263e-05
-0.000390953
5.18453e-05
-0.000413201
9.76641e-05
-0.000273287
9.50639e-05
-0.000297108
0.000203773
-0.000260143
0.000501635
-0.000208957
0.000588603
-0.00016136
0.000573387
-0.000117032
0.000349719
-0.000103521
0.000307376
3.63362e-05
0.000112734
9.83344e-05
1.22989e-05
8.72065e-05
-9.74417e-05
0.000142543
-0.000160143
7.99883e-05
-0.000151272
4.35249e-05
-0.000363182
-0.000384967
3.87105e-05
-0.000115052
0.00080299
-0.000209182
0.000376173
-0.000299073
0.000269156
-0.000437482
0.000303604
-0.000516154
0.0002441
-0.000514194
9.37753e-05
-0.000561646
0.000109178
-0.000542642
3.28407e-05
-0.000493458
4.84798e-05
-0.000493244
9.485e-05
-0.000510815
0.000221344
-0.00025132
0.00024214
-0.000183459
0.000520741
-0.000136187
0.000526115
2.0529e-05
0.000193003
0.000104316
0.000223589
0.000147614
6.94353e-05
0.000184049
-2.41366e-05
0.000176164
-8.95568e-05
0.000107171
-9.11494e-05
0.000224998
-0.0002691
8.15295e-05
-0.000219713
-0.000401853
9.84152e-05
-0.000166943
0.000969932
-0.000320404
0.000529635
-0.000402482
0.000351234
-0.000440011
0.000341132
-0.000363591
0.000167681
-0.000507833
0.000238017
-0.00053196
0.000133305
-0.000549657
5.0538e-05
-0.000517588
1.64102e-05
-0.000447362
2.4624e-05
-0.000350148
0.000124131
-0.00032385
0.000215842
-0.000174931
0.000371823
-7.12781e-06
0.000358312
1.68297e-05
0.000169045
0.000150985
8.94343e-05
0.000195317
2.51026e-05
0.000182912
-1.17308e-05
0.000149434
-5.6079e-05
0.000226862
-0.000168578
0.000116501
-0.000158738
0.000230015
-0.000333227
-0.000368439
0.000196601
-0.000158869
0.0011288
-0.000297857
0.000668622
-0.000346236
0.000399613
-0.00036249
0.000357387
-0.00038909
0.000194281
-0.000382425
0.000231353
-0.000321365
7.22452e-05
-0.000339426
6.85983e-05
-0.000335017
1.20014e-05
-0.000342039
3.16459e-05
-0.000282115
6.42071e-05
-0.000185478
0.000119204
-4.60372e-05
0.000232382
8.36958e-05
0.000228579
0.000139642
0.000113099
0.000139403
8.96725e-05
0.00016472
-2.13672e-07
0.000189753
-3.67642e-05
0.000227242
-9.35682e-05
0.000173517
-0.000114852
0.000167766
-0.000152988
0.000143634
-0.000309095
-0.000344904
0.000120099
-9.71308e-05
0.00122593
-0.000152628
0.000724119
-0.000266427
0.000513412
-0.000140176
0.000231136
-0.000251364
0.000305469
-0.000123312
0.000103301
-0.000131394
8.03268e-05
-0.000126517
6.3721e-05
-0.000136414
2.18989e-05
-0.000127635
2.28673e-05
-9.43269e-05
3.08985e-05
-6.04938e-05
8.53714e-05
-3.51355e-06
0.000175402
0.000119942
0.000105124
0.000114606
0.000118435
0.000136839
6.74396e-05
0.000142085
-5.45967e-06
0.000147179
-4.18589e-05
0.000177692
-0.000124081
0.000217141
-0.000154302
0.00029842
-0.000234266
0.000272222
-0.000282897
-0.000333558
0.000260876
-1.59401e-05
0.00124187
-5.15524e-05
0.000759732
-7.54346e-05
0.000537294
-5.19614e-05
0.000207663
-3.48747e-05
0.000288382
-1.23347e-05
8.07616e-05
1.59292e-05
5.20629e-05
3.46648e-05
4.49852e-05
3.88054e-05
1.77582e-05
3.83237e-05
2.3349e-05
3.99826e-05
2.92396e-05
7.32982e-05
5.20559e-05
0.000177401
7.12988e-05
0.000188756
9.37691e-05
0.000261639
4.5552e-05
0.000309029
2.00493e-05
0.000326746
-2.31758e-05
0.000343603
-5.87167e-05
0.000344979
-0.000125456
0.000353542
-0.000162866
0.000267104
-0.000147828
0.000269047
-0.000284839
-0.000190273
0.000125762
2.05032e-05
0.00122137
0.000190547
0.000589688
0.000181774
0.000546067
0.000192166
0.00019727
0.000209195
0.000271354
0.000216235
7.37219e-05
0.000220614
4.76833e-05
0.000227579
3.80199e-05
0.000223562
2.17752e-05
0.00020928
3.76312e-05
0.000216373
2.21466e-05
0.000235398
3.30313e-05
0.000255118
5.15785e-05
0.000300822
4.80652e-05
0.000317298
2.90754e-05
0.000347012
-9.66438e-06
0.0003625
-3.86639e-05
0.00035406
-5.02765e-05
0.000336172
-0.000107568
0.000316603
-0.000143296
0.000286277
-0.000117502
0.00013757
-0.000136132
-0.000217039
0.000164335
6.05781e-05
0.00116079
0.000176487
0.000473779
0.000165924
0.00055663
0.000172516
0.000190678
0.000326633
0.000117237
0.000322127
7.82275e-05
0.000316543
5.32668e-05
0.000307758
4.6805e-05
0.000288609
4.09245e-05
0.000259303
6.69377e-05
0.00025067
3.07789e-05
0.000244362
3.93394e-05
0.000272933
2.30077e-05
0.000304317
1.66807e-05
0.000327792
5.60085e-06
0.000351536
-3.34082e-05
0.000334451
-2.15793e-05
0.000307153
-2.29784e-05
0.00028818
-8.85952e-05
0.00025288
-0.000107996
0.000210142
-7.47634e-05
0.000202775
-0.000128765
-0.00013059
0.000116326
9.71698e-05
0.00106362
0.00013639
0.000434559
0.00039376
0.00029926
0.000383098
0.000201341
0.000369062
0.000131273
0.000353971
9.33178e-05
0.00033816
6.90782e-05
0.000325844
5.91213e-05
0.000314094
5.26741e-05
0.000297828
8.32032e-05
0.000250903
7.77045e-05
0.000264269
2.59736e-05
0.000255469
3.18075e-05
0.000251597
2.05528e-05
0.000245845
1.13521e-05
0.000203525
8.9124e-06
0.000214879
-3.29333e-05
0.000277709
-8.58082e-05
0.000224041
-3.49272e-05
0.000198886
-8.28411e-05
0.000210812
-8.66901e-05
0.000188264
-0.000106217
-0.00012686
0.000184533
0.000162122
0.0009015
0.000265359
0.000331322
0.000326914
0.000237704
0.000346348
0.000181906
0.000339876
0.000137745
0.00032851
0.000104684
0.000320802
7.67861e-05
0.000311863
6.80602e-05
0.000306571
5.79667e-05
0.000288583
0.000101191
0.00026727
9.90176e-05
0.000258848
3.43952e-05
0.000263284
2.73718e-05
0.00026326
2.05768e-05
0.00026565
8.96215e-06
0.000273214
1.34859e-06
0.000248224
-7.94311e-06
0.000199964
-3.75481e-05
0.000186766
-2.17295e-05
0.000169407
-6.54821e-05
0.000155958
-7.32413e-05
0.000137194
-8.74533e-05
-0.00012926
0.000139594
0.000163931
0.000737568
0.000210512
0.000284741
0.000255357
0.000192859
0.000271726
0.000165538
0.000275107
0.000134363
0.000269422
0.000110369
0.00026423
8.19781e-05
0.000262153
7.01376e-05
0.000257982
6.21382e-05
0.000248179
0.000110993
0.00024313
0.000104067
0.000228731
4.87944e-05
0.000214691
4.14118e-05
0.000204638
3.063e-05
0.00017943
3.41698e-05
0.000141887
3.88912e-05
0.000141825
-7.88055e-06
0.00013113
-2.68529e-05
0.000163913
-5.45132e-05
0.000126755
-2.8324e-05
0.000120254
-6.67401e-05
0.000104827
-7.20265e-05
-9.45246e-05
7.00922e-05
0.000194903
0.000542665
0.000204373
0.000275271
0.000215847
0.000181385
0.000217241
0.000164143
0.00021522
0.000136385
0.000211414
0.000114174
0.000196779
9.66129e-05
0.000189613
7.73041e-05
0.000173831
7.792e-05
0.000230077
5.47471e-05
0.00022494
0.000109204
0.000216213
5.75211e-05
0.000211106
4.65193e-05
0.000205092
3.66435e-05
0.000191224
4.80381e-05
0.000202185
2.79303e-05
0.000189338
4.9657e-06
0.000165925
-3.43947e-06
0.000139589
-2.81775e-05
0.000132841
-2.15754e-05
0.000132198
-6.60979e-05
0.000107417
-4.72449e-05
-9.7755e-05
0.000110647
0.000172036
0.000370629
0.000176786
0.000270522
0.00017099
0.000187181
0.000169943
0.00016519
0.000170595
0.000135733
0.000173785
0.000110984
0.000170077
0.000100321
0.000165566
8.18156e-05
0.000166433
7.70529e-05
0.000169693
5.14867e-05
0.000167119
0.000111778
0.000168274
5.63654e-05
0.000176464
3.83296e-05
0.000179415
3.36924e-05
0.000164942
6.25107e-05
0.000147647
4.52257e-05
0.000101356
5.12561e-05
9.55852e-05
2.33184e-06
8.53664e-05
-1.79587e-05
0.000105859
-4.20675e-05
9.77641e-05
-5.80035e-05
0.000104518
-5.39985e-05
-7.29487e-05
7.97115e-05
6.86456e-05
0.000301983
0.000116369
0.000222798
0.000120254
0.000183296
0.000127995
0.000157448
0.00013327
0.000130459
0.000134762
0.000109493
0.000133997
0.000101085
0.000125024
9.07879e-05
0.000122372
7.97047e-05
0.000100769
7.30905e-05
0.000167271
4.52753e-05
0.000133069
9.05683e-05
0.000132158
3.92399e-05
8.44441e-05
8.14064e-05
7.73489e-05
6.96059e-05
7.38074e-05
4.87671e-05
0.000115325
9.73846e-06
0.000109679
7.97763e-06