/*--------------------------------*- C++ -*----------------------------------*\
| =========                 |                                                 |
| \\      /  F ield         | foam-extend: Open Source CFD                    |
|  \\    /   O peration     | Version:     4.1                                |
|   \\  /    A nd           | Web:         http://www.foam-extend.org         |
|    \\/     M anipulation  |                                                 |
\*---------------------------------------------------------------------------*/
FoamFile
{
    version     2.0;
    format      ascii;
    class       volVectorField;
    location    "0.8";
    object      U_0;
}
// * * * * * * * * * * * * * * * * * * * * * * * * * * * * * * * * * * * * * //

dimensions      [0 1 -1 0 0 0 0];

internalField   nonuniform List<vector> 
2268
(
(-0.00627164 0.0132564 0)
(-0.039868 0.0135358 0)
(-0.0430102 0.0100447 0)
(-0.0650167 -0.00909734 0)
(-0.0732486 0.00192582 0)
(-0.109034 -0.00219977 0)
(-0.127219 -0.00139447 0)
(-0.107635 0.00239334 0)
(-0.102017 -0.0126563 0)
(-0.0446615 -0.0160562 0)
(-0.0396639 0.00864664 0)
(-0.0369265 -0.0145658 0)
(-0.0262843 0.00393732 0)
(-0.0273701 0.0143275 0)
(-0.0242719 0.00132528 0)
(-0.0236685 0.00692292 0)
(0.0058455 -0.0171588 0)
(0.00732968 0.0026466 0)
(0.0221617 -0.000248534 0)
(0.0189937 0.00248572 0)
(0.0128563 0.00585533 0)
(-9.38276e-05 0.000739037 0)
(0.00474916 0.000440891 0)
(-0.000534828 0.00820189 0)
(-0.0233199 0.00466076 0)
(-0.0289998 0.000602316 0)
(-0.0736335 -0.0091424 0)
(-0.0789079 0.00750636 0)
(-0.0996674 0.0276972 0)
(-0.127632 0.000871664 0)
(-0.0929708 -0.00758942 0)
(-0.0756333 -0.0028616 0)
(-0.0476106 0.0262452 0)
(-0.0464359 -0.0148925 0)
(-0.0464414 -0.0070062 0)
(-0.032695 0.0186536 0)
(-0.0483432 -0.0427664 0)
(-0.052815 0.0204192 0)
(-0.0514748 -0.0270635 0)
(-0.0184016 -0.00194952 0)
(-0.00369049 -0.0114381 0)
(0.010554 -0.00438585 0)
(0.011382 0.0011646 0)
(0.00567593 0.00426689 0)
(-0.00660796 0.00250463 0)
(-0.00631145 0.0020273 0)
(-0.00536927 0.0250541 0)
(-0.0397637 0.0141925 0)
(-0.0495419 0.0228474 0)
(-0.0779046 0.00395318 0)
(-0.0829093 0.0131846 0)
(-0.115077 -0.0017566 0)
(-0.126281 -0.00578892 0)
(-0.101195 -0.0299511 0)
(-0.081774 0.0118706 0)
(-0.0759916 -0.0486226 0)
(-0.0763519 -0.00897126 0)
(-0.0531974 -0.0081687 0)
(-0.0799403 -0.00691176 0)
(-0.0785919 -0.0123499 0)
(-0.0734646 -0.00872841 0)
(-0.0804321 0.00133087 0)
(-0.0620306 -0.0153004 0)
(-0.0444818 -0.0111006 0)
(-0.00907683 -0.0180397 0)
(-0.00118565 0.00959202 0)
(-0.00133936 0.0139794 0)
(-0.00870236 0.00570712 0)
(-0.00547769 -0.00551985 0)
(-0.0270757 0.0279704 0)
(-0.028542 0.0261289 0)
(-0.0507731 0.015318 0)
(-0.0863965 0.00838032 0)
(-0.0714678 0.0165489 0)
(-0.117287 -0.00819148 0)
(-0.137814 -0.00637766 0)
(-0.100044 0.00360046 0)
(-0.122656 0.0198204 0)
(-0.112563 -0.0448617 0)
(-0.0991312 0.0102984 0)
(-0.124223 0.00102547 0)
(-0.127547 -0.00164086 0)
(-0.132581 0.0145631 0)
(-0.137537 -0.0100452 0)
(-0.130556 -0.000662172 0)
(-0.127175 -0.0415205 0)
(-0.0866929 -0.0252676 0)
(-0.0601949 0.000524221 0)
(-0.0314492 -0.00912718 0)
(-0.0184023 0.0107407 0)
(-0.018736 0.00398012 0)
(-0.00915542 -0.00390199 0)
(-0.0220067 0.0536164 0)
(-0.0402428 0.0268568 0)
(-0.0521585 0.0206976 0)
(-0.0747281 0.0244169 0)
(-0.0745133 0.024665 0)
(-0.135409 0.0195203 0)
(-0.154435 -0.00443819 0)
(-0.129983 0.0153654 0)
(-0.157424 -0.0318012 0)
(-0.121919 0.0325808 0)
(-0.118191 0.00509757 0)
(-0.145362 0.00316532 0)
(-0.154461 -0.00432488 0)
(-0.159026 -0.00308992 0)
(-0.161761 -0.0117782 0)
(-0.168664 -0.00512862 0)
(-0.147393 -0.0336862 0)
(-0.124052 -0.0420125 0)
(-0.104895 -0.04699 0)
(-0.0831618 -0.0103336 0)
(-0.0557583 0.0241081 0)
(-0.0286706 0.000165942 0)
(-0.0119296 -0.0191428 0)
(-0.0359602 0.0538349 0)
(-0.0471554 0.0394401 0)
(-0.073245 0.0259426 0)
(-0.105191 0.00750557 0)
(-0.0976046 -0.0094031 0)
(-0.146987 0.0326499 0)
(-0.171396 -0.0193722 0)
(-0.14267 0.0224326 0)
(-0.147532 0.0166938 0)
(-0.147055 0.0425916 0)
(-0.162925 0.0152633 0)
(-0.166773 0.0188084 0)
(-0.166094 0.00725608 0)
(-0.169782 0.0119527 0)
(-0.15953 -0.00186733 0)
(-0.158502 -0.00191089 0)
(-0.164336 -0.06757 0)
(-0.140345 -0.0479716 0)
(-0.117372 -0.0741743 0)
(-0.100716 -0.0328509 0)
(-0.110322 -0.0295017 0)
(-0.0637918 -0.0178224 0)
(-0.0214801 -0.0210087 0)
(-0.0298401 0.0783084 0)
(-0.0237731 0.0681557 0)
(-0.0601576 0.050196 0)
(-0.127048 0.0337416 0)
(-0.103604 -0.0121654 0)
(-0.137104 0.0502287 0)
(-0.16402 0.00834662 0)
(-0.156817 0.00672048 0)
(-0.165868 0.0393766 0)
(-0.152434 0.0492559 0)
(-0.162653 0.017885 0)
(-0.163618 0.01452 0)
(-0.165403 -0.000130604 0)
(-0.16359 -0.00256306 0)
(-0.1647 -0.0168602 0)
(-0.188285 -0.0163608 0)
(-0.17969 -0.140611 0)
(-0.12957 -0.0656657 0)
(-0.111866 -0.0844343 0)
(-0.0953523 -0.0167772 0)
(-0.116548 -0.0334937 0)
(-0.0651214 -0.0217209 0)
(-0.0165583 -0.0414429 0)
(-0.0358514 0.0728438 0)
(-0.0403931 0.0310719 0)
(-0.0943015 0.0475936 0)
(-0.145952 0.0252196 0)
(-0.134331 -0.00789675 0)
(-0.176868 0.0125015 0)
(-0.210583 0.0545795 0)
(-0.161169 0.0261415 0)
(-0.155414 0.0617023 0)
(-0.178541 0.0349719 0)
(-0.184514 0.0171512 0)
(-0.173801 0.0116145 0)
(-0.174424 0.00538778 0)
(-0.182397 0.00719808 0)
(-0.178138 -0.00571134 0)
(-0.225987 0.021648 0)
(-0.199558 -0.115654 0)
(-0.109603 -0.0756653 0)
(-0.10212 -0.104171 0)
(-0.0859459 -0.0273963 0)
(-0.136642 -0.0416193 0)
(-0.0823283 -0.0665444 0)
(0.00731373 -0.0533963 0)
(-0.309792 0.143414 0)
(-0.576605 0.0730422 0)
(-0.84901 0.0548695 0)
(-0.947221 -0.0253518 0)
(-0.965116 -0.0382627 0)
(-0.789879 -0.121577 0)
(-0.596485 -0.0602969 0)
(-0.539755 -0.0435176 0)
(-0.51322 -0.0454478 0)
(-0.39981 -0.071651 0)
(-0.319024 -0.0932131 0)
(-0.263908 -0.0427206 0)
(-0.139008 -0.0143757 0)
(-0.0456728 -0.108538 0)
(0.0314998 -0.0445875 0)
(0.099297 -0.0227719 0)
(0.061962 0.00396057 0)
(-0.0958198 -0.0116136 0)
(-0.0383047 -0.00933282 0)
(-0.256555 0.240025 0)
(-0.472392 0.152645 0)
(-0.655432 0.211137 0)
(-0.788278 0.0865826 0)
(-0.736706 -0.0455377 0)
(-0.387987 -0.157548 0)
(-0.248783 -0.0491052 0)
(-0.257179 -0.0133102 0)
(-0.26971 -0.080521 0)
(-0.196391 -0.100216 0)
(-0.137216 -0.0263841 0)
(-0.0861501 -0.100239 0)
(0.031097 -0.0922942 0)
(0.0625644 -0.0229243 0)
(0.057957 -0.0133271 0)
(0.126811 -0.0207229 0)
(0.0916745 0.087275 0)
(-0.0915423 0.0520083 0)
(-0.0953746 -0.0492068 0)
(-0.303972 0.411401 0)
(-0.426654 0.236647 0)
(-0.470075 0.0874725 0)
(-0.450674 -0.0173239 0)
(-0.254515 -0.162093 0)
(-0.167724 -0.210113 0)
(-0.0649766 -0.130176 0)
(0.154538 0.00982648 0)
(0.1604 0.0126144 0)
(0.248869 -0.13214 0)
(0.337748 -0.0908201 0)
(0.304671 -0.0419538 0)
(0.31659 -0.0628365 0)
(0.352362 -0.064906 0)
(0.265423 -0.0371198 0)
(0.429939 -0.0511861 0)
(0.540087 0.102011 0)
(0.181699 0.121915 0)
(0.0385457 -0.0876851 0)
(-0.268027 0.43717 0)
(-0.333477 0.356673 0)
(-0.278051 0.195965 0)
(-0.177458 0.0196161 0)
(0.00036921 -0.17147 0)
(-0.0990118 -0.23421 0)
(-0.0214039 -0.189497 0)
(0.134072 -0.216128 0)
(0.233167 -0.110916 0)
(0.306705 -0.0573067 0)
(0.376159 -0.167375 0)
(0.418362 -0.108601 0)
(0.400838 -0.0539718 0)
(0.411936 -0.127712 0)
(0.344753 -0.0454287 0)
(0.45674 0.00446201 0)
(0.829238 0.0255757 0)
(0.301637 0.229407 0)
(0.21345 0.0459598 0)
(-0.240421 0.49803 0)
(-0.20443 0.391995 0)
(-0.0777711 0.0739662 0)
(-0.132947 -0.063172 0)
(0.165991 -0.187297 0)
(-0.0406494 -0.182105 0)
(0.0292348 -0.230544 0)
(0.0926668 -0.186099 0)
(0.266466 -0.113712 0)
(0.309547 -0.0383544 0)
(0.353784 -0.0924005 0)
(0.424742 -0.167979 0)
(0.407715 -0.172006 0)
(0.427007 -0.150688 0)
(0.392212 -0.0542576 0)
(0.455754 -0.00343318 0)
(0.70962 0.0160605 0)
(0.169833 0.278634 0)
(0.168821 0.127686 0)
(-0.2101 0.546061 0)
(-0.105044 0.370887 0)
(0.0582421 0.0290178 0)
(0.0756585 -0.0529687 0)
(0.250523 -0.191163 0)
(0.0834088 -0.250611 0)
(0.179886 -0.208007 0)
(0.104372 -0.15504 0)
(0.244219 -0.100652 0)
(0.256739 -0.105984 0)
(0.297639 -0.0621248 0)
(0.299749 -0.145202 0)
(0.327012 -0.259588 0)
(0.40447 -0.172569 0)
(0.358348 -0.050896 0)
(0.442829 0.0904259 0)
(0.498591 0.0548731 0)
(0.128039 0.301858 0)
(0.222155 0.179959 0)
(-0.196113 0.567052 0)
(0.000936465 0.356041 0)
(0.0779141 -0.00391585 0)
(0.362549 -0.198445 0)
(0.312601 -0.202424 0)
(0.0790706 -0.372871 0)
(0.256751 -0.265284 0)
(0.228448 -0.166385 0)
(0.17816 -0.244918 0)
(0.223232 -0.180126 0)
(0.254193 -0.142724 0)
(0.239892 -0.195834 0)
(0.199707 -0.236817 0)
(0.321802 -0.151718 0)
(0.319746 -0.0663774 0)
(0.363783 0.11267 0)
(0.357479 0.0685009 0)
(0.248577 0.558485 0)
(0.32699 0.208537 0)
(-0.193839 0.636773 0)
(0.0945142 0.293276 0)
(0.260607 -0.116656 0)
(0.453907 -0.354109 0)
(0.345639 -0.163016 0)
(0.0829764 -0.33073 0)
(0.28156 -0.271261 0)
(0.28383 -0.0725835 0)
(0.212646 -0.203417 0)
(0.176629 -0.104027 0)
(0.229389 -0.204189 0)
(0.224468 -0.22695 0)
(0.173896 -0.157399 0)
(0.203757 -0.102078 0)
(0.114914 -0.0548521 0)
(0.190453 0.0862772 0)
(0.295819 0.148656 0)
(0.278791 0.706596 0)
(0.320938 0.318737 0)
(-0.011814 0.120292 0)
(0.00697922 0.173878 0)
(-0.0591313 0.130531 0)
(-0.18136 0.0611898 0)
(-0.157595 -0.00197744 0)
(-0.130272 -0.0133991 0)
(-0.162617 0.0684601 0)
(-0.164766 0.0679712 0)
(-0.180114 0.0474228 0)
(-0.170731 0.024169 0)
(-0.163798 0.0217114 0)
(-0.164853 0.0207942 0)
(-0.167631 0.00975563 0)
(-0.176298 0.004185 0)
(-0.168438 0.0253188 0)
(-0.278678 -0.0137633 0)
(-0.253462 -0.0824248 0)
(-0.1369 -0.123498 0)
(-0.0971172 -0.117257 0)
(-0.0300466 -0.0372129 0)
(-0.145854 -0.0288137 0)
(-0.0865433 -0.108885 0)
(0.0558908 -0.108611 0)
(-0.146576 0.22062 0)
(-0.170256 0.16186 0)
(-0.245854 0.108023 0)
(-0.28659 0.0739851 0)
(-0.196412 0.110816 0)
(-0.117311 0.0299662 0)
(-0.0783224 0.0326711 0)
(-0.146139 0.0267696 0)
(-0.165717 0.0191823 0)
(-0.168072 0.0161321 0)
(-0.152898 0.00448315 0)
(-0.144368 0.00173494 0)
(-0.147843 0.0045953 0)
(-0.130595 0.0102998 0)
(-0.225194 0.0467763 0)
(-0.406541 -0.0849498 0)
(-0.33785 -0.0350462 0)
(-0.30862 -0.180462 0)
(-0.147241 -0.116373 0)
(0.205841 -0.0148342 0)
(-0.0332212 -0.0150264 0)
(-0.145907 -0.154704 0)
(-0.20003 -0.150223 0)
(-0.117588 0.2733 0)
(0.0141241 0.1323 0)
(0.0381637 0.0636957 0)
(-0.0648868 0.0313537 0)
(0.0162721 -0.0963575 0)
(-0.0786657 0.0104171 0)
(-0.0279183 0.106528 0)
(0.0506066 0.143566 0)
(-0.110457 0.0686846 0)
(-0.173039 0.0554038 0)
(-0.122172 0.00683525 0)
(-0.0836183 0.0250038 0)
(-0.179989 0.00574558 0)
(-0.28215 0.070785 0)
(-0.74788 0.037097 0)
(-0.991 0.0307256 0)
(-0.578204 -0.349505 0)
(-0.367291 -0.604911 0)
(-0.295753 -0.446882 0)
(-0.165212 -0.120822 0)
(-0.0699193 0.174504 0)
(-0.0356375 0.0339195 0)
(-0.407683 -0.108419 0)
(-0.135044 0.253325 0)
(0.179347 0.00148222 0)
(0.395218 0.043195 0)
(0.229606 0.178519 0)
(-0.177234 0.231777 0)
(-0.251195 0.0251812 0)
(-0.2704 -0.055492 0)
(-0.439009 0.174822 0)
(-0.557267 0.340019 0)
(-0.551763 -0.0145172 0)
(-0.192415 -0.209789 0)
(0.409725 0.045661 0)
(0.434222 0.322048 0)
(-0.360286 0.507158 0)
(-1.30425 0.668043 0)
(-1.02392 -0.184699 0)
(-0.620417 -0.562559 0)
(-0.408597 -0.601668 0)
(-0.306579 -0.513609 0)
(-0.360319 -0.261544 0)
(-0.204557 0.0111195 0)
(-0.0603873 0.00735424 0)
(-0.338998 0.0804539 0)
(-0.193046 0.235249 0)
(-0.223449 -0.0112215 0)
(-0.612532 0.283924 0)
(-0.721109 0.260035 0)
(-0.684989 0.240813 0)
(-0.978329 0.075418 0)
(-1.74167 0.454222 0)
(-1.81009 0.542217 0)
(-1.37133 -0.196432 0)
(-1.1094 -0.782302 0)
(-0.723992 -0.696826 0)
(-0.555098 -0.528567 0)
(0.0286523 0.76651 0)
(-0.64419 1.46649 0)
(-0.95938 0.397609 0)
(-0.871494 -0.436216 0)
(-0.64069 -0.518459 0)
(-0.60865 -0.50609 0)
(-0.643719 -0.488243 0)
(-0.583376 -0.282784 0)
(-0.53887 0.0719819 0)
(-0.500234 0.151014 0)
(-0.497248 0.205856 0)
(-0.482406 0.645817 0)
(-0.633853 0.372828 0)
(-1.02759 0.292661 0)
(-1.10957 0.265494 0)
(-1.26546 0.547212 0)
(-2.23647 0.933544 0)
(-2.27452 0.436121 0)
(-1.72252 -0.269441 0)
(-1.51486 -0.644478 0)
(-1.19568 -0.804975 0)
(-1.02534 -0.796468 0)
(-0.968416 -0.650141 0)
(-0.915202 0.712564 0)
(-0.766222 1.2954 0)
(-0.695623 0.748596 0)
(-0.424002 -0.362095 0)
(-0.694871 -0.498675 0)
(-0.702963 -0.576095 0)
(-0.757707 -0.528907 0)
(-0.689924 -0.293564 0)
(-0.534246 0.00153113 0)
(-0.557254 0.118458 0)
(-0.481479 0.176287 0)
(-0.824328 1.19936 0)
(-0.777775 0.660985 0)
(-1.21847 0.629149 0)
(-1.44694 0.561424 0)
(-2.02726 1.38689 0)
(-2.16542 1.35118 0)
(-1.98727 0.296773 0)
(-1.72918 -0.467954 0)
(-1.43684 -0.795729 0)
(-1.30585 -0.848399 0)
(-1.2891 -0.904349 0)
(-1.2027 -0.508206 0)
(-1.30342 0.54742 0)
(-1.19799 0.853238 0)
(-0.80534 0.113833 0)
(-0.78585 -0.422244 0)
(-0.880322 -0.516962 0)
(-0.796503 -0.508232 0)
(-0.688447 -0.396054 0)
(-0.645533 -0.14059 0)
(-0.590799 -0.115087 0)
(-0.471672 -0.110588 0)
(-0.357793 -0.211805 0)
(-1.10424 2.11923 0)
(-1.34416 0.977223 0)
(-0.814367 1.13151 0)
(-1.63466 1.70071 0)
(-1.89333 2.14926 0)
(-1.65768 1.43459 0)
(-1.47384 0.12512 0)
(-1.28442 -0.524605 0)
(-1.28345 -0.66629 0)
(-1.33828 -0.948989 0)
(-1.44834 -0.802224 0)
(-1.57679 -0.542636 0)
(-1.38719 0.306554 0)
(-1.15083 0.682673 0)
(-0.952597 0.200678 0)
(-0.995663 -0.586947 0)
(-1.0297 -0.937108 0)
(-1.00818 -0.794905 0)
(-0.815036 -0.693726 0)
(-0.697405 -0.431494 0)
(-0.564777 -0.196746 0)
(-0.320767 -0.0834186 0)
(-0.295758 -0.044648 0)
(-1.14902 2.63296 0)
(-1.22151 1.2327 0)
(-0.811663 2.05518 0)
(-1.51642 1.82148 0)
(-1.63589 1.99784 0)
(-1.49904 1.27309 0)
(-1.22517 -0.0380957 0)
(-1.35167 -0.501715 0)
(-1.33767 -0.671329 0)
(-1.48876 -0.830046 0)
(-1.69293 -0.841142 0)
(-1.71815 -0.531371 0)
(-1.47917 0.0167275 0)
(-1.20912 0.284053 0)
(-1.00044 0.146089 0)
(-1.01861 -0.339431 0)
(-1.11772 -0.698395 0)
(-1.07166 -0.757158 0)
(-0.997445 -0.726518 0)
(-0.826698 -0.732006 0)
(-0.491777 -0.163772 0)
(-0.285233 -0.0169603 0)
(-0.319948 -0.141936 0)
(-1.09363 3.29553 0)
(-1.11266 1.55222 0)
(-1.02005 1.99287 0)
(-1.59862 1.8782 0)
(-1.35415 1.38042 0)
(-1.46619 0.732867 0)
(-1.61982 -0.0286709 0)
(-1.64293 -0.487306 0)
(-1.81839 -0.900966 0)
(-1.80913 -1.14096 0)
(-1.69819 -1.18807 0)
(-1.58353 -0.515044 0)
(-1.40082 -0.152802 0)
(-1.05371 0.30927 0)
(-0.867226 0.264597 0)
(-0.741295 -0.222694 0)
(-0.919172 -0.42995 0)
(-0.9765 -0.847739 0)
(-0.966996 -0.903979 0)
(-0.930895 -0.931052 0)
(-0.949794 -0.83121 0)
(-0.690787 -0.566982 0)
(-0.484457 -0.492232 0)
(-1.02841 3.82673 0)
(-1.24906 1.94817 0)
(-1.15187 1.99429 0)
(-1.52462 1.94431 0)
(-1.31605 1.4367 0)
(-1.49715 0.872196 0)
(-1.66955 0.082937 0)
(-1.63384 -0.551628 0)
(-1.88537 -0.847181 0)
(-1.86369 -0.988991 0)
(-1.5181 -0.903172 0)
(-1.5237 -0.7433 0)
(-1.56222 -0.622514 0)
(-1.07868 -0.385591 0)
(-0.851686 -0.397342 0)
(-0.912694 -0.280642 0)
(-0.689683 -0.400208 0)
(-0.740613 -0.775144 0)
(-0.664453 -0.827823 0)
(-0.941684 -0.968836 0)
(-0.967145 -1.043 0)
(-0.870769 -0.925233 0)
(-0.779256 -0.829803 0)
(-0.8678 4.31403 0)
(-1.30218 2.465 0)
(-1.37942 2.13115 0)
(-1.31905 1.92439 0)
(-0.923478 1.55583 0)
(-1.13566 0.86317 0)
(-1.40804 0.126209 0)
(-1.04445 -0.441146 0)
(-1.15636 -0.813888 0)
(-1.33022 -0.892351 0)
(-1.28844 -0.884718 0)
(-1.54361 -0.972864 0)
(-1.63793 -0.73025 0)
(-1.54032 -0.616721 0)
(-0.974351 -0.541429 0)
(-0.838228 -0.331196 0)
(-0.939179 -0.454446 0)
(-0.803672 -0.597252 0)
(-1.01833 -0.908974 0)
(-1.05744 -1.0961 0)
(-1.02174 -0.976179 0)
(-1.05632 -0.899097 0)
(-1.0994 -0.783192 0)
(-0.152613 5.05264 0)
(-0.735297 2.963 0)
(-1.2104 2.31838 0)
(-0.708137 2.16941 0)
(-0.62729 1.11502 0)
(-0.280994 0.414067 0)
(-0.0127361 0.153944 0)
(0.0549997 0.0350204 0)
(0.199447 -0.410108 0)
(-0.349385 -0.188218 0)
(-1.08968 -0.843456 0)
(-1.43515 -0.861868 0)
(-1.3619 -0.697014 0)
(-1.50323 -0.618021 0)
(-1.30335 -0.413005 0)
(-1.26453 -0.308564 0)
(-1.36625 -0.386424 0)
(-1.20286 -0.551423 0)
(-1.25197 -0.695341 0)
(-1.42523 -0.745881 0)
(-1.32961 -0.951893 0)
(-1.17589 -1.11866 0)
(-1.38294 -0.910017 0)
(0.547078 5.53147 0)
(0.496325 3.65689 0)
(-0.285808 2.34469 0)
(0.600914 1.60152 0)
(0.313441 1.16846 0)
(0.724681 0.312221 0)
(0.86073 -0.227324 0)
(0.604805 -0.427958 0)
(0.680046 -0.375745 0)
(0.817484 -0.140302 0)
(0.638329 -0.346884 0)
(-1.12987 -0.231487 0)
(-1.07672 -0.652856 0)
(-1.30191 -0.708022 0)
(-1.30817 -0.634087 0)
(-1.39399 -0.647471 0)
(-1.65803 -0.423963 0)
(-1.25465 -0.55103 0)
(-1.13705 -0.665855 0)
(-1.41144 -0.708363 0)
(-1.51764 -0.697773 0)
(-1.43038 -1.08412 0)
(-1.51721 -1.14116 0)
(0.901276 5.13287 0)
(1.34583 3.96011 0)
(1.06336 2.42355 0)
(2.15735 1.1325 0)
(1.77212 0.906346 0)
(1.87405 0.360228 0)
(1.88662 0.374446 0)
(1.79659 0.0933277 0)
(1.68333 -0.0255441 0)
(1.4425 0.0721358 0)
(1.32409 0.0530191 0)
(1.22327 0.373216 0)
(-0.402824 0.21588 0)
(-0.58146 -0.898714 0)
(-0.649291 -0.622477 0)
(-0.954716 -0.472615 0)
(-1.11495 -0.29347 0)
(-1.24551 -0.330547 0)
(-1.11247 -0.67653 0)
(-1.24974 -0.804922 0)
(-1.42484 -0.803263 0)
(-1.43092 -0.797565 0)
(-1.6102 -0.858935 0)
(0.725297 2.97826 0)
(1.96425 2.94763 0)
(2.71841 2.08428 0)
(3.02079 1.39388 0)
(3.21071 -0.262142 0)
(3.8988 -0.483836 0)
(3.65217 -0.138455 0)
(2.86101 -0.221512 0)
(2.74206 0.0150368 0)
(2.6143 0.345463 0)
(2.18847 0.89326 0)
(2.15509 0.860909 0)
(1.7408 0.770084 0)
(1.12832 0.388241 0)
(-0.113445 -0.340514 0)
(-0.627537 0.164042 0)
(-1.07172 -0.0954997 0)
(-1.14824 -0.157531 0)
(-0.888892 -0.542142 0)
(-1.14085 -0.813636 0)
(-1.27102 -0.898021 0)
(-1.21617 -0.791876 0)
(-1.22189 -0.894403 0)
(-0.124031 1.53055 0)
(1.99115 2.56406 0)
(2.62245 2.20539 0)
(2.77749 1.61006 0)
(2.86479 0.643498 0)
(4.35572 -0.408508 0)
(4.11971 -0.773863 0)
(3.1985 -0.837269 0)
(2.92903 -0.102709 0)
(2.56249 0.764154 0)
(2.23056 1.21391 0)
(2.04373 1.49203 0)
(1.94594 1.45688 0)
(1.35801 1.09715 0)
(-0.452271 0.18149 0)
(-0.57669 0.2737 0)
(-0.917664 -0.0111196 0)
(-1.03071 -0.294167 0)
(-0.984647 -0.452599 0)
(-1.08925 -0.784008 0)
(-1.13182 -0.848311 0)
(-1.12464 -0.775997 0)
(-1.06885 -0.751004 0)
(-0.34872 0.889049 0)
(1.71139 2.13839 0)
(1.98863 1.51566 0)
(2.64676 1.19279 0)
(3.27847 -0.0456969 0)
(3.17293 -0.668584 0)
(2.6151 -0.320089 0)
(1.93752 0.23192 0)
(2.24938 0.702603 0)
(1.5675 0.89536 0)
(1.21139 0.930299 0)
(1.48083 1.20583 0)
(1.8891 2.05701 0)
(1.22805 1.81091 0)
(-0.129498 0.990826 0)
(-0.132139 0.736238 0)
(-0.602481 0.498221 0)
(-0.947565 -0.0238445 0)
(-1.09693 -0.274753 0)
(-1.24442 -0.542025 0)
(-1.07757 -0.699832 0)
(-0.942224 -0.732798 0)
(-0.950537 -0.551815 0)
(-0.531054 0.423449 0)
(1.13204 1.52303 0)
(1.126 0.0697754 0)
(1.57219 0.062418 0)
(1.467 0.426903 0)
(0.267739 0.462592 0)
(-0.0563663 0.353184 0)
(0.0180578 0.41715 0)
(0.349762 0.7911 0)
(0.443161 0.772548 0)
(0.604617 0.948596 0)
(1.23984 1.54403 0)
(1.51446 2.15502 0)
(0.797611 1.9695 0)
(-0.107923 1.25552 0)
(-0.0382605 0.984973 0)
(-0.551826 0.655681 0)
(-0.74764 0.321456 0)
(-0.988265 -0.231428 0)
(-1.19524 -0.511885 0)
(-1.16802 -0.849337 0)
(-0.839154 -1.0544 0)
(-0.715395 -1.02609 0)
(-0.665115 0.552312 0)
(-0.0411278 0.621682 0)
(-0.287802 0.13691 0)
(-0.375351 0.200994 0)
(-0.11955 0.410341 0)
(0.198274 0.57397 0)
(-0.00856937 0.233115 0)
(0.0695072 0.257967 0)
(-0.00262851 0.856461 0)
(-0.0129905 1.08894 0)
(0.213264 1.63708 0)
(0.386155 2.26732 0)
(0.498343 2.26387 0)
(-0.355019 2.16373 0)
(-0.483825 1.80439 0)
(-0.121385 1.39044 0)
(-0.701434 1.17737 0)
(-0.844664 0.927924 0)
(-0.917145 0.127884 0)
(-1.31086 -0.494915 0)
(-1.39385 -0.893167 0)
(-0.915962 -1.15942 0)
(-0.593896 -1.45969 0)
(-0.297869 1.06949 0)
(-0.525301 0.829797 0)
(-0.777925 0.379643 0)
(-0.870907 0.171744 0)
(-0.912465 0.118153 0)
(-0.304756 0.474135 0)
(-0.134222 0.326494 0)
(-0.211554 0.126191 0)
(-0.107778 0.45542 0)
(-0.102283 0.485917 0)
(0.100866 1.03792 0)
(-0.753496 2.20626 0)
(-0.843078 2.58005 0)
(-1.07772 2.61988 0)
(-1.05253 2.20237 0)
(-0.765092 1.81477 0)
(-1.10523 1.60117 0)
(-1.0253 0.945341 0)
(-1.11071 -0.0732435 0)
(-1.00977 -0.65265 0)
(-0.963276 -0.916055 0)
(-1.05614 -1.0977 0)
(-0.659831 -1.39172 0)
(-0.523543 1.38399 0)
(-0.603013 0.694949 0)
(-0.67779 0.341338 0)
(-0.620932 0.219678 0)
(-0.554148 0.144445 0)
(-0.623063 0.314719 0)
(-0.588146 0.214968 0)
(-0.662613 0.129207 0)
(-0.438698 0.39523 0)
(-0.384601 0.414176 0)
(-0.3771 0.79977 0)
(-1.23145 1.88178 0)
(-1.39734 2.66673 0)
(-1.29952 2.76169 0)
(-1.14211 1.94363 0)
(-1.14235 1.47125 0)
(-1.06746 1.46714 0)
(-0.774586 0.981413 0)
(-0.489719 0.00248702 0)
(-0.74873 -0.554347 0)
(-0.435722 -1.02009 0)
(-0.594232 -1.32024 0)
(-0.624858 -1.2992 0)
(-0.363235 2.022 0)
(-0.567355 0.899249 0)
(-0.812525 0.410354 0)
(-0.874328 0.156567 0)
(-1.04461 0.263519 0)
(-1.33506 0.365423 0)
(-1.4084 0.358789 0)
(-0.89949 0.311951 0)
(-0.707111 0.679835 0)
(-1.07912 1.06572 0)
(-1.37663 1.21019 0)
(-1.84746 2.01721 0)
(-1.61278 2.63762 0)
(-1.39643 2.64487 0)
(-1.19202 1.4941 0)
(-0.966963 1.12263 0)
(-0.664231 1.15797 0)
(-0.241458 0.468958 0)
(0.0176547 -0.511005 0)
(0.191982 -0.792779 0)
(-0.0467046 -1.51315 0)
(-0.217622 -1.52736 0)
(-0.144351 -1.48019 0)
(-0.364594 2.24067 0)
(-0.602408 0.927807 0)
(-0.805019 0.488384 0)
(-0.872049 0.362103 0)
(-1.5526 0.602971 0)
(-1.69523 0.448066 0)
(-1.70398 0.398304 0)
(-1.51433 0.375748 0)
(-1.44905 0.408139 0)
(-1.68072 0.691035 0)
(-2.21365 1.33628 0)
(-1.83523 2.14213 0)
(-1.56295 2.5647 0)
(-1.1975 2.39431 0)
(-0.844502 1.3661 0)
(-0.723419 1.24143 0)
(-0.0634254 0.715603 0)
(0.307277 0.258725 0)
(0.377595 -0.3001 0)
(0.326626 -0.587342 0)
(0.682233 -1.21067 0)
(0.477285 -1.35819 0)
(0.151892 -1.31303 0)
(-0.588071 2.68082 0)
(-0.809216 1.15615 0)
(-0.892212 0.844033 0)
(-1.26409 0.965134 0)
(-2.00875 0.719266 0)
(-2.08141 0.375607 0)
(-2.1279 0.322796 0)
(-2.0713 0.319652 0)
(-1.79656 0.37842 0)
(-1.74952 0.692997 0)
(-1.99668 1.43995 0)
(-1.85862 1.923 0)
(-1.5503 2.1051 0)
(-0.973768 2.00667 0)
(-0.0259833 1.32385 0)
(0.107013 1.04589 0)
(0.552649 0.763438 0)
(0.612476 -0.077995 0)
(0.668545 -0.377648 0)
(0.617123 -0.675117 0)
(0.898338 -0.974471 0)
(0.708894 -1.44494 0)
(0.476054 -1.58521 0)
(-1.02176 3.10238 0)
(-1.13219 1.62625 0)
(-1.33083 1.22435 0)
(-1.59431 1.36631 0)
(-1.91882 1.15354 0)
(-1.96232 0.909633 0)
(-1.97123 0.510195 0)
(-2.11842 0.145123 0)
(-1.99361 -0.0125262 0)
(-1.77143 0.0729568 0)
(-1.4471 0.645563 0)
(-1.23983 1.40014 0)
(-1.05028 1.81896 0)
(-0.283534 1.80367 0)
(0.159435 1.17756 0)
(0.165853 0.712904 0)
(0.763207 0.286787 0)
(0.760753 -0.084309 0)
(0.515789 -0.332874 0)
(0.648802 -0.532351 0)
(0.915703 -1.01787 0)
(0.828188 -1.47059 0)
(0.856506 -1.47672 0)
(-1.03278 3.79713 0)
(-0.95124 2.16384 0)
(-1.42192 1.42776 0)
(-1.49518 1.34382 0)
(-1.37442 1.24081 0)
(-1.56341 0.835812 0)
(-1.29855 0.433203 0)
(-1.36852 0.201883 0)
(-1.31417 0.120791 0)
(-1.34701 0.123108 0)
(-1.1972 0.264815 0)
(-0.838181 0.396411 0)
(-0.526651 0.989889 0)
(0.161449 0.886923 0)
(0.504261 0.392026 0)
(0.531089 0.456884 0)
(0.490964 0.0864437 0)
(0.719962 -0.086247 0)
(0.654402 -0.458686 0)
(1.05592 -0.75514 0)
(1.27253 -1.18141 0)
(1.08473 -1.21507 0)
(0.904526 -1.34669 0)
(-0.658194 4.35579 0)
(-0.604743 2.66794 0)
(-1.11701 1.71249 0)
(-1.02839 1.49391 0)
(-0.932363 1.36998 0)
(-1.01837 0.855536 0)
(-0.484826 0.605441 0)
(-0.831724 0.361091 0)
(-0.60796 0.0713569 0)
(-0.555064 0.11774 0)
(-0.418637 0.184922 0)
(-0.34271 0.385853 0)
(-0.325314 0.697169 0)
(0.263258 0.786798 0)
(0.61337 0.384364 0)
(0.999748 0.19906 0)
(0.978973 -0.0967522 0)
(1.03755 -0.432852 0)
(1.06816 -0.740815 0)
(1.39869 -0.781906 0)
(1.38595 -0.939797 0)
(1.08903 -1.11341 0)
(0.987647 -1.3135 0)
(-0.137377 4.96233 0)
(-0.0425228 2.60613 0)
(-0.647651 2.00777 0)
(-0.0962006 1.5084 0)
(-0.330993 0.966832 0)
(-0.127629 0.58797 0)
(0.0467927 0.423608 0)
(-0.00969252 0.0951251 0)
(0.178784 0.0631476 0)
(0.075195 0.0727346 0)
(0.121309 0.0685305 0)
(0.516334 0.316842 0)
(0.550754 0.617613 0)
(0.668173 0.586358 0)
(0.77213 0.471723 0)
(1.07174 0.28785 0)
(1.15168 0.00643888 0)
(1.21376 -0.174052 0)
(1.28257 -0.382449 0)
(1.34517 -0.528681 0)
(1.25238 -0.926635 0)
(0.995121 -1.08348 0)
(0.928489 -1.39839 0)
(-0.108043 5.39217 0)
(0.483218 3.16158 0)
(0.564404 2.05491 0)
(0.78662 1.58475 0)
(0.545138 1.14543 0)
(0.756433 0.592045 0)
(0.776956 0.343301 0)
(0.737261 0.219357 0)
(0.843387 0.0791528 0)
(0.798996 0.09084 0)
(0.728364 0.166958 0)
(0.81318 0.305468 0)
(0.884915 0.3225 0)
(0.97143 0.200323 0)
(1.16943 0.158005 0)
(1.17341 0.021868 0)
(1.33368 -0.145663 0)
(1.29872 -0.246509 0)
(1.32644 -0.505363 0)
(1.16514 -0.661127 0)
(1.19577 -1.04424 0)
(0.956371 -1.15634 0)
(1.01633 -1.11779 0)
(-0.00683466 5.34731 0)
(0.488087 3.63893 0)
(0.855469 1.95402 0)
(1.44706 1.2056 0)
(1.13493 0.798495 0)
(1.0972 0.524287 0)
(1.16983 0.361261 0)
(1.12164 0.332427 0)
(1.13421 0.246422 0)
(0.983635 0.217067 0)
(0.928002 0.153944 0)
(0.92708 0.1754 0)
(0.95919 0.128622 0)
(1.0504 0.132147 0)
(1.1642 0.0811458 0)
(1.25028 -0.179406 0)
(1.34824 -0.162337 0)
(1.26283 -0.123375 0)
(1.11528 -0.307268 0)
(0.987326 -0.389201 0)
(0.828508 -0.6369 0)
(0.737203 -0.621062 0)
(0.798215 -0.567003 0)
(0.106981 4.50023 0)
(0.578091 3.13899 0)
(1.33629 2.10339 0)
(1.55183 1.45604 0)
(1.36705 0.884779 0)
(1.25538 0.609718 0)
(1.27913 0.432189 0)
(1.21365 0.363001 0)
(1.24971 0.32353 0)
(1.14393 0.258583 0)
(1.05534 0.239017 0)
(1.04669 0.136644 0)
(0.934621 0.0656478 0)
(0.992311 0.0444162 0)
(0.936245 0.00319063 0)
(1.0662 -0.0237603 0)
(1.59446 -0.165739 0)
(1.36651 -0.250725 0)
(0.82329 -0.33121 0)
(0.729956 -0.405382 0)
(0.743965 -0.424663 0)
(0.767549 -0.419282 0)
(0.688063 -0.441914 0)
(0.444939 3.6936 0)
(0.662203 2.72759 0)
(1.24698 2.03709 0)
(1.30826 1.45116 0)
(1.25995 1.02063 0)
(1.19598 0.740763 0)
(1.19101 0.56495 0)
(1.131 0.481011 0)
(1.15628 0.444346 0)
(1.12161 0.373789 0)
(1.01213 0.350431 0)
(0.943276 0.207391 0)
(0.938186 0.155357 0)
(0.998786 0.0972117 0)
(0.979985 0.0708943 0)
(0.98784 0.0465548 0)
(1.02852 -0.0437742 0)
(0.860443 -0.337924 0)
(0.715432 -0.181026 0)
(0.655111 -0.227854 0)
(0.598424 -0.241694 0)
(0.535666 -0.346139 0)
(0.460235 -0.506011 0)
(0.456063 3.09911 0)
(0.685918 2.02344 0)
(0.907762 1.40382 0)
(0.979669 1.19076 0)
(0.987638 0.970274 0)
(0.990888 0.788812 0)
(0.950092 0.56768 0)
(0.953688 0.524084 0)
(0.992224 0.391398 0)
(0.981429 0.391511 0)
(0.902792 0.361092 0)
(0.868808 0.299097 0)
(0.776007 0.24214 0)
(0.815289 0.135512 0)
(0.693121 0.063995 0)
(0.762334 0.0086216 0)
(1.07079 -0.0894775 0)
(0.984767 -0.197845 0)
(0.812172 -0.153674 0)
(0.453637 -0.246921 0)
(0.474101 -0.29478 0)
(0.427911 -0.300557 0)
(0.377677 -0.420569 0)
(0.575485 2.41157 0)
(0.808586 1.92351 0)
(0.757695 1.29359 0)
(0.794891 1.17335 0)
(0.792649 0.973117 0)
(0.754154 0.817349 0)
(0.77681 0.631491 0)
(0.661095 0.489629 0)
(0.747824 0.488723 0)
(0.918298 0.41122 0)
(0.83189 0.397555 0)
(0.814756 0.395317 0)
(0.762452 0.341564 0)
(0.784531 0.292367 0)
(0.730537 0.183093 0)
(0.74942 0.231849 0)
(0.764193 -0.024874 0)
(0.683839 -0.0144514 0)
(0.564121 -0.221587 0)
(0.490712 -0.157805 0)
(0.498307 -0.215101 0)
(0.448501 -0.252085 0)
(0.377437 -0.286624 0)
(0.66644 2.35776 0)
(0.843067 1.91733 0)
(0.576487 1.33771 0)
(0.64581 1.20345 0)
(0.616095 0.996417 0)
(0.612325 0.82667 0)
(0.647803 0.75194 0)
(0.607837 0.602721 0)
(0.624047 0.602614 0)
(0.647969 0.366119 0)
(0.645259 0.429302 0)
(0.622477 0.422657 0)
(0.633527 0.322788 0)
(0.646466 0.240252 0)
(0.658177 0.204602 0)
(0.561793 0.182081 0)
(0.593977 0.121899 0)
(0.753734 -0.0425154 0)
(0.647914 -0.173653 0)
(0.531262 -0.161009 0)
(0.28077 -0.261959 0)
(0.412043 -0.413876 0)
(0.349766 -0.46879 0)
(0.46871 2.36631 0)
(0.516097 1.74826 0)
(0.351095 1.34272 0)
(0.496154 1.17745 0)
(0.454863 0.967203 0)
(0.503014 0.786607 0)
(0.471577 0.711944 0)
(0.501293 0.590468 0)
(0.41217 0.518292 0)
(0.543817 0.399044 0)
(0.709583 0.374841 0)
(0.582038 0.366861 0)
(0.409443 0.237965 0)
(0.555332 0.252534 0)
(0.604463 0.224054 0)
(0.528158 0.147868 0)
(0.469605 0.197207 0)
(0.407061 0.0889001 0)
(0.36651 0.0317921 0)
(0.304444 -0.125047 0)
(0.15623 -0.168747 0)
(0.263038 -0.337045 0)
(0.475407 -0.542233 0)
(0.259671 1.88591 0)
(0.24293 1.4111 0)
(0.316123 1.27229 0)
(0.355781 1.08376 0)
(0.369317 0.902812 0)
(0.383712 0.786045 0)
(0.395784 0.739129 0)
(0.401984 0.69719 0)
(0.395325 0.589661 0)
(0.40043 0.580602 0)
(0.419194 0.298692 0)
(0.423245 0.330185 0)
(0.452174 0.300721 0)
(0.565162 0.337003 0)
(0.521447 0.30805 0)
(0.440878 0.20227 0)
(0.459607 -0.0316564 0)
(0.336428 -0.0472991 0)
(0.178984 -0.0349026 0)
(0.198074 -0.0768467 0)
(0.106198 -0.155925 0)
(0.263873 -0.240139 0)
(0.381572 -0.47581 0)
(0.149938 1.63552 0)
(0.154083 1.3607 0)
(0.240037 1.22095 0)
(0.269299 1.06728 0)
(0.2988 0.895849 0)
(0.327945 0.753173 0)
(0.305848 0.67878 0)
(0.303909 0.632947 0)
(0.316273 0.551724 0)
(0.243572 0.457739 0)
(0.347096 0.323368 0)
(0.384188 0.267501 0)
(0.413349 0.319403 0)
(0.616613 0.235379 0)
(0.505484 0.247577 0)
(0.320168 0.200962 0)
(0.380548 0.114202 0)
(0.334751 0.0352569 0)
(0.291438 0.101831 0)
(0.224344 0.0862733 0)
(0.1478 -0.0822152 0)
(0.201804 -0.295882 0)
(0.292866 -0.51814 0)
(0.0947687 1.32563 0)
(0.096274 1.17827 0)
(0.174566 1.04012 0)
(0.184288 0.935033 0)
(0.234437 0.74873 0)
(0.238844 0.78185 0)
(0.237156 0.757357 0)
(0.23647 0.702816 0)
(0.237757 0.672678 0)
(0.238212 0.580982 0)
(0.201573 0.53645 0)
(0.268406 0.404724 0)
(0.319761 0.444967 0)
(0.431176 0.357368 0)
(0.554463 0.191345 0)
(0.366997 0.22152 0)
(0.362994 0.177319 0)
(0.465093 0.0372546 0)
(0.355714 0.128249 0)
(0.215037 0.0330675 0)
(0.192873 -0.0902834 0)
(0.268024 -0.413619 0)
(0.184536 -0.452274 0)
(0.060128 1.32529 0)
(0.0561589 1.20393 0)
(0.146033 1.0739 0)
(0.11937 0.966552 0)
(0.273394 0.801661 0)
(0.361988 0.720244 0)
(0.262573 0.599529 0)
(0.224008 0.588331 0)
(0.205975 0.510976 0)
(0.112006 0.452941 0)
(0.19467 0.361694 0)
(0.220951 0.375032 0)
(0.203635 0.313362 0)
(0.405202 0.329526 0)
(0.421546 0.214489 0)
(0.337925 0.211281 0)
(0.262647 0.197838 0)
(0.384733 0.104344 0)
(0.449381 0.202108 0)
(0.426452 0.00664635 0)