/*--------------------------------*- C++ -*----------------------------------*\
| =========                 |                                                 |
| \\      /  F ield         | foam-extend: Open Source CFD                    |
|  \\    /   O peration     | Version:     4.1                                |
|   \\  /    A nd           | Web:         http://www.foam-extend.org         |
|    \\/     M anipulation  |                                                 |
\*---------------------------------------------------------------------------*/
FoamFile
{
    version     2.0;
    format      ascii;
    class       volScalarField;
    location    "0.1";
    object      alpha1;
}
// * * * * * * * * * * * * * * * * * * * * * * * * * * * * * * * * * * * * * //

dimensions      [0 0 0 0 0 0 0];

internalField   nonuniform List<scalar> 
2268
(
1
1
1
1
1
1
1
1
1
1
1
1
1
1
1
0.999999
0.999997
0.999992
0.999912
0.997782
0.919659
0.337599
0.0187691
1
0.999999
1
1
1
1
1
1
1
1
1
1
1
1
0.999999
0.999994
0.99998
0.9999
0.998899
0.981458
0.726212
0.17108
0.00820317
1
0.999999
1
1
1
1
1
1
1
1
1
1
1
0.999999
0.999994
0.999965
0.999823
0.998875
0.990013
0.882645
0.377849
0.0418877
0.00139927
1
0.999999
1
1
1
1
1
1
1
1
1
1
1
0.999998
0.999976
0.999839
0.998963
0.991191
0.91282
0.503091
0.0904335
0.00385915
6.9926e-05
0.999999
0.999999
1
1
1
1
1
1
1
1
1
1
1
0.999996
0.999932
0.999362
0.994366
0.938923
0.56359
0.124322
0.00783412
0.00011552
6.68464e-07
0.999999
0.999999
1
1
1
1
1
1
1
1
1
1
1
0.999996
0.999879
0.997753
0.966983
0.675213
0.166474
0.0130447
0.000242897
9.39582e-07
7.4354e-10
0.999999
1
1
1
1
1
1
1
1
1
1
1
0.999999
0.999997
0.999893
0.990842
0.822795
0.269534
0.0254803
0.000637799
3.78206e-06
2.48577e-09
7.30654e-14
1
1
1
1
1
1
1
1
1
1
1
1
0.999992
0.999997
0.999997
0.950112
0.486202
0.0793095
0.0034336
2.64682e-05
2.61828e-08
1.74941e-12
2.94471e-18
9.56587e-37
3.01936e-35
1.8374e-36
6.75796e-38
1.59942e-39
3.19922e-41
6.04169e-43
1.06794e-44
1.72979e-46
2.51278e-48
3.26061e-50
3.76332e-52
3.93617e-54
3.72079e-56
1.93144e-58
7.12051e-61
1.6582e-63
2.33383e-66
1.5019e-69
1.95604e-34
4.05066e-33
2.37228e-34
8.86223e-36
2.25024e-37
4.96877e-39
1.04422e-40
2.04954e-42
3.66616e-44
5.86275e-46
8.37297e-48
1.06004e-49
1.22476e-51
1.30483e-53
7.12123e-56
2.75825e-58
6.9062e-61
1.05137e-63
7.32181e-67
2.004e-32
2.69393e-31
1.45913e-32
5.3815e-34
1.41506e-35
3.27623e-37
7.29187e-39
1.51851e-40
2.8793e-42
4.86112e-44
7.32046e-46
9.48834e-48
1.09238e-49
6.99897e-52
4.07277e-54
1.62231e-56
4.32054e-59
6.98783e-62
5.19808e-65
1.82532e-30
1.01638e-29
5.58419e-31
2.08531e-32
5.6689e-34
1.36798e-35
3.21172e-37
7.06578e-39
1.41482e-40
2.51488e-42
3.96388e-44
5.5253e-46
6.88168e-48
4.65693e-50
2.76635e-52
1.12028e-54
3.09522e-57
5.19963e-60
4.03631e-63
1.49192e-28
2.67116e-28
1.54092e-29
5.97923e-31
1.69111e-32
4.26658e-34
1.04642e-35
2.41045e-37
5.05438e-39
9.38887e-41
1.54815e-42
2.28229e-44
1.73527e-46
1.20728e-48
6.98342e-51
2.84462e-53
8.0664e-56
1.39897e-58
1.12682e-61
1.0789e-26
5.133e-27
3.14215e-28
1.28104e-29
3.83663e-31
1.02884e-32
2.64249e-34
6.33188e-36
1.37884e-37
2.60251e-39
4.40704e-41
3.94201e-43
3.13788e-45
2.18268e-47
1.25145e-49
5.17323e-52
1.50004e-54
2.67843e-57
2.23061e-60
3.98268e-25
7.9445e-26
4.7844e-27
2.00166e-28
6.3305e-30
1.83525e-31
4.94331e-33
1.23024e-34
2.71275e-36
5.25509e-38
5.45832e-40
5.14973e-42
4.22879e-44
2.92365e-46
1.67014e-48
7.01354e-51
2.0759e-53
3.8044e-56
3.25878e-59
8.58464e-24
9.04178e-25
4.97836e-26
1.97128e-27
3.81329e-29
6.42655e-31
9.43779e-33
1.25969e-34
1.53194e-36
1.73761e-38
1.84805e-40
1.8621e-42
1.59915e-44
1.13207e-46
6.49887e-49
2.80177e-51
8.51398e-54
1.60868e-56
1.42191e-59
1
1
1
1
1
1
1
1
1
1
1
1
0.999973
0.999113
0.975381
0.670675
0.146431
0.0105674
0.000175816
6.61385e-07
1.0759e-09
7.6488e-14
6.26929e-19
1
1
1
1
1
1
1
1
1
1
1
1
0.999879
0.994096
0.820148
0.180754
0.0105126
0.000177758
7.72535e-07
1.71512e-09
3.6832e-12
2.69519e-16
2.08943e-19
1
1
1
1
1
1
1
1
1
1
1
1
0.99955
0.970801
0.517782
0.0585321
0.00137468
5.44451e-06
1.64154e-09
6.71677e-13
1.01257e-15
2.47298e-18
3.73001e-19
1
1
1
1
1
1
1
1
1
1
1
1
0.998472
0.924117
0.345131
0.0293157
0.00048682
7.55174e-07
3.0605e-11
4.02863e-17
6.52071e-19
5.11946e-19
9.78264e-20
1
1
1
1
1
1
1
1
1
1
1
1
0.995452
0.816118
0.175244
0.00840426
7.28313e-05
2.92242e-08
6.3581e-14
3.7984e-19
2.79867e-19
1.08853e-19
2.3092e-20
1
1
1
1
1
1
1
1
1
1
1
1
0.984691
0.607182
0.0747755
0.00175526
4.50473e-06
1.39637e-10
1.12691e-17
2.02741e-19
8.82827e-20
2.39852e-20
4.59406e-21
1
1
1
1
1
1
1
1
1
1
1
1
0.944563
0.369632
0.0245204
0.00029846
6.21556e-08
7.09418e-14
1.80548e-18
1.13937e-19
3.09153e-20
5.96164e-21
9.37127e-22
1
1
1
1
1
1
1
1
1
1
1
1
0.795886
0.162216
0.00565051
1.66391e-05
1.55325e-10
1.15177e-17
5.7408e-19
6.83302e-20
9.88825e-21
1.30043e-21
1.52124e-22
1
1
1
1
1
1
1
1
1
1
1
1
0.519527
0.0531549
0.000997736
3.0051e-07
5.03818e-14
1.38634e-18
1.621e-19
2.16257e-20
2.59695e-21
2.76455e-22
2.65496e-23
1
1
1
1
1
1
1
1
1
1
1
0.999993
0.3487
0.0171557
9.48688e-05
9.43276e-10
8.46849e-17
6.06996e-19
6.04814e-20
6.57589e-21
6.31958e-22
5.44704e-23
4.27476e-24
1
1
1
1
1
1
1
1
1
1
1
0.999115
0.320205
0.0128793
9.39985e-05
1.59248e-08
8.95351e-15
1.71936e-19
1.68696e-20
1.63166e-21
1.30453e-22
9.12577e-24
5.61394e-25
1
1
1
1
1
1
1
1
1
1
1
0.985882
0.334105
0.012594
8.12489e-05
1.19162e-08
2.24618e-14
3.57593e-20
3.35795e-21
3.08642e-22
2.14827e-23
1.26364e-24
6.37356e-26
0.999975
0.999973
0.999959
0.999932
0.999903
0.999852
0.999833
0.999831
0.999975
0.999994
0.999998
0.94317
0.227244
0.0083035
1.54768e-05
2.03436e-09
5.22527e-15
6.7016e-21
5.60432e-22
4.62632e-23
2.81422e-24
1.41673e-25
6.33503e-27
0.99473
0.994355
0.992612
0.990019
0.987508
0.98365
0.983191
0.983399
0.993789
0.99754
0.999122
0.906556
0.245333
0.0371171
0.00030209
2.24673e-08
2.507e-14
2.67609e-20
1.81787e-22
8.02078e-24
3.63537e-25
1.38193e-26
6.84589e-28
0.857043
0.851318
0.827898
0.798588
0.77067
0.734301
0.735755
0.741191
0.82685
0.9011
0.949188
0.944968
0.488946
0.0980706
0.00579443
4.78069e-05
2.22352e-08
1.88904e-13
7.09982e-21
1.77108e-24
5.17856e-26
1.81115e-27
6.40322e-29
0.274371
0.263961
0.226208
0.185536
0.153869
0.123908
0.127663
0.134378
0.218757
0.355373
0.519728
0.499376
0.294012
0.0634384
0.00589691
3.96823e-05
1.09813e-08
2.95628e-14
3.48075e-22
4.23539e-25
1.37615e-26
2.47439e-28
6.02032e-30
0.0101089
0.00946788
0.00745695
0.00570832
0.00452231
0.00355602
0.00381169
0.00425384
0.00729091
0.0153049
0.0365974
0.0322363
0.0137921
0.00862138
0.00999025
0.000862142
2.9506e-08
1.62041e-15
3.67319e-23
1.24333e-25
3.50261e-27
3.50345e-29
5.59663e-31
0.000294984
0.000275622
0.000212617
0.000173746
0.00014471
0.00011825
0.00012204
0.000139503
0.000208287
0.000358926
0.000534859
0.000407558
0.000183623
0.000899419
0.00619547
0.000438891
1.98808e-08
4.26519e-16
8.2066e-24
3.3053e-26
8.26307e-28
4.85656e-30
5.22163e-32
7.66023e-06
7.17759e-06
4.28757e-06
4.67552e-06
3.64724e-06
3.16846e-06
3.23365e-06
2.99771e-06
4.81362e-06
4.81441e-06
7.15247e-06
1.04451e-05
9.07496e-05
0.000865159
0.00239571
0.000191467
5.55579e-09
2.15177e-16
2.1106e-24
7.56619e-27
1.6549e-28
6.07708e-31
4.74267e-33
1.20441e-25
7.29075e-24
5.39758e-22
6.6179e-21
7.62494e-20
6.86189e-19
3.8042e-18
7.17039e-16
7.10842e-13
1.19852e-09
2.9317e-07
1.34964e-05
0.000139707
0.000366292
0.000406367
5.09962e-05
3.04948e-10
7.79625e-17
5.09633e-25
1.57326e-27
2.85397e-29
6.65437e-32
3.90344e-34
8.92398e-26
3.83888e-24
8.26997e-23
9.71907e-22
7.27207e-21
3.40664e-20
9.60486e-20
2.7653e-17
5.23516e-13
1.17197e-09
2.4793e-07
4.38912e-06
1.50751e-05
2.40216e-05
2.25285e-05
3.8962e-06
1.56216e-12
1.72219e-17
9.8005e-26
2.67159e-28
4.00469e-30
6.30156e-33
2.91597e-35
7.33917e-26
3.81735e-24
8.27984e-23
8.26818e-22
5.31236e-21
1.98267e-20
6.87113e-20
3.94122e-17
2.55817e-13
1.60674e-10
9.55832e-09
1.08809e-07
4.03671e-07
6.3425e-07
6.23629e-07
1.19648e-07
5.43373e-15
2.38224e-18
1.47132e-26
3.64873e-29
4.47173e-31
5.07049e-34
1.91922e-36
2.99496e-28
2.39318e-26
8.04587e-25
1.46815e-23
1.31426e-22
2.36347e-21
2.03974e-20
3.18507e-19
2.52757e-18
2.81248e-17
3.59083e-15
1.93657e-12
1.66489e-10
1.68622e-09
3.74025e-09
3.62788e-09
1.62919e-16
2.17462e-19
1.65316e-27
3.94921e-30
3.98532e-32
3.44277e-35
1.08984e-37
3.6057e-33
5.9869e-31
4.53943e-29
1.78957e-27
1.46403e-25
4.45306e-24
2.43213e-22
7.56525e-21
1.48386e-19
2.04576e-18
1.60321e-17
9.57577e-17
4.36739e-16
1.38577e-15
2.27386e-15
1.55483e-15
4.4888e-18
9.79428e-21
1.46155e-28
3.3879e-31
2.73738e-33
1.93305e-36
5.33034e-39
1.64896e-39
1.46673e-37
4.80016e-36
1.12158e-32
6.46538e-31
2.05023e-29
5.33066e-28
1.08107e-26
1.17396e-25
6.84995e-25
3.66866e-24
1.78298e-23
8.08246e-23
3.69377e-22
1.89698e-21
1.15513e-20
6.64856e-20
2.80979e-22
7.27616e-30
2.34462e-32
1.48943e-34
8.97341e-38
2.16248e-40
9.33824e-42
2.03187e-39
2.4814e-37
2.18329e-35
1.18859e-33
4.41755e-32
1.09665e-30
1.41978e-29
1.54579e-28
1.15499e-27
7.22397e-27
3.63828e-26
1.46515e-25
4.60368e-25
1.23463e-24
2.2896e-24
2.49832e-24
7.30958e-24
2.99096e-31
1.0177e-33
5.20477e-36
3.51662e-39
7.62967e-42
3.99237e-46
8.43452e-44
7.00163e-42
1.62181e-39
6.41344e-38
1.36008e-36
1.92308e-35
2.30636e-34
1.79155e-33
1.16509e-32
6.03613e-32
2.5599e-31
8.68133e-31
2.2543e-30
4.65568e-30
6.68129e-30
5.15705e-30
9.06883e-31
1.1857e-32
3.44207e-35
1.54222e-37
9.52771e-41
1.92108e-43
7.91072e-54
1.23363e-51
8.26055e-50
2.36438e-48
6.19553e-47
1.29618e-45
2.05423e-44
2.31442e-43
1.86166e-42
1.24704e-41
6.84878e-41
3.24417e-40
1.36003e-39
5.41123e-39
2.32016e-38
1.14271e-37
7.9712e-37
7.51458e-36
7.47692e-35
9.89184e-37
3.31271e-39
2.13545e-42
4.34773e-45
2.06628e-62
4.54918e-60
4.61937e-58
2.81359e-56
1.15345e-54
3.38016e-53
7.46722e-52
1.10874e-50
1.5889e-49
2.27047e-48
3.63078e-47
6.34255e-46
1.11875e-44
1.85853e-43
2.77082e-42
3.58109e-41
3.85163e-40
3.30359e-39
1.88084e-38
1.08383e-38
5.60822e-41
3.58418e-44
7.82072e-47
1.12811e-68
2.47845e-66
2.56805e-64
1.58538e-62
7.58779e-61
3.002e-59
7.89929e-58
1.86489e-56
3.92482e-55
7.24591e-54
1.16625e-52
1.63857e-51
2.05488e-50
2.39588e-49
2.69475e-48
2.9378e-47
2.95247e-46
1.15026e-44
3.02474e-42
7.89745e-44
9.53328e-43
4.78582e-46
1.13702e-48
6.72877e-77
2.68471e-74
5.86768e-72
8.56036e-70
9.75494e-68
6.73819e-66
3.89549e-64
1.93953e-62
8.38463e-61
3.13235e-59
1.01654e-57
2.87098e-56
7.11671e-55
1.52376e-53
2.29249e-52
2.95732e-51
3.25372e-50
3.31118e-49
4.73482e-48
1.14104e-46
3.31062e-45
6.10915e-48
1.29058e-50
6.08684e-82
4.55986e-79
1.46074e-76
2.9187e-74
3.24422e-72
2.87469e-70
2.12141e-68
1.32883e-66
7.14005e-65
3.29919e-63
1.31438e-61
4.51482e-60
1.33154e-58
3.371e-57
7.19991e-56
1.34149e-54
2.21744e-53
3.66777e-52
7.53348e-51
2.20666e-49
7.17254e-48
3.38898e-50
1.20857e-52
2.18209e-89
9.01965e-87
2.15926e-84
3.79938e-82
5.65007e-80
7.51308e-78
8.83856e-76
9.35594e-74
8.97766e-72
7.86559e-70
6.32747e-68
4.68946e-66
3.20334e-64
2.01827e-62
1.14226e-60
6.08161e-59
3.04072e-57
1.45961e-55
6.86945e-54
3.15312e-52
1.48868e-50
1.16145e-54
1.05804e-54
8.16322e-95
6.67198e-92
2.63558e-89
6.82349e-87
1.42626e-84
2.42446e-82
3.53421e-80
4.51805e-78
5.17269e-76
5.37594e-74
5.12117e-72
4.49765e-70
3.65042e-68
2.75012e-66
1.91457e-64
1.23947e-62
7.45886e-61
4.20451e-59
2.27016e-57
1.29363e-55
8.4367e-54
5.59378e-57
4.86418e-57
1.38289e-100
1.54249e-97
8.3233e-95
2.90881e-92
7.58331e-90
1.59138e-87
2.80972e-85
4.31273e-83
5.90512e-81
7.35975e-79
8.47014e-77
9.06348e-75
9.00805e-73
8.26796e-71
6.90603e-69
5.20428e-67
3.49806e-65
2.10148e-63
1.10997e-61
5.28304e-60
6.01699e-58
2.00655e-59
8.504e-60
2.55023e-109
4.34295e-106
3.55682e-103
1.89496e-100
7.57002e-98
2.40728e-95
6.37959e-93
1.44977e-90
2.88569e-88
5.10896e-86
8.13774e-84
1.17575e-81
1.54941e-79
1.8701e-77
2.06965e-75
2.09326e-73
1.93411e-71
1.64118e-69
1.28467e-67
9.38992e-66
6.19678e-64
3.72673e-62
2.96578e-65
4.03783e-115
9.16294e-112
9.97105e-109
7.00751e-106
3.61889e-103
1.47446e-100
4.96132e-98
1.42308e-95
3.56239e-93
7.91925e-91
1.58284e-88
2.86686e-86
4.72458e-84
7.0939e-82
9.69256e-80
1.19484e-77
1.33026e-75
1.3545e-73
1.28409e-71
1.1332e-69
9.03719e-68
9.12129e-66
1.74281e-67
6.62136e-122
1.89367e-118
2.55107e-115
2.17901e-112
1.33578e-109
6.25964e-107
2.33002e-104
7.05547e-102
1.76578e-99
3.69264e-97
6.50535e-95
9.7269e-93
1.24694e-90
1.39971e-88
1.4434e-86
1.4921e-84
1.72614e-82
2.28478e-80
3.09999e-78
3.9713e-76
5.16188e-74
5.49419e-72
4.49938e-70
1.54257e-131
8.17713e-128
2.04815e-124
3.272e-121
3.78413e-118
3.40142e-115
2.4891e-112
1.53259e-109
8.14121e-107
3.80645e-104
1.59186e-101
6.03192e-99
2.08938e-96
6.65174e-94
1.94643e-91
5.19329e-89
1.27391e-86
2.91357e-84
6.24265e-82
1.25795e-79
2.35342e-77
3.83641e-75
5.4862e-73
5.08943e-139
4.12558e-135
1.56252e-131
3.75914e-128
6.53089e-125
8.80632e-122
9.66755e-119
8.94302e-116
7.1591e-113
5.06895e-110
3.23474e-107
1.89593e-104
1.04082e-101
5.46888e-99
2.72937e-96
1.19821e-93
4.60977e-91
1.591e-88
5.00033e-86
1.45291e-83
4.05276e-81
1.02561e-78
2.66121e-76
6.17864e-149
1.20604e-144
1.04113e-140
5.55581e-137
2.09667e-133
6.02374e-130
1.38414e-126
2.63935e-123
4.29836e-120
6.1099e-117
7.70582e-114
8.72578e-111
8.82122e-108
7.80756e-105
5.93602e-102
4.02972e-99
2.36928e-96
1.27722e-93
6.4838e-91
3.11643e-88
1.37752e-85
5.19133e-83
3.047e-80
0
0
0
0
0
0
0
0
0
0
0
0
0
0
0
1.46286e-105
3.56099e-102
3.98792e-99
3.30174e-96
2.23744e-93
1.31796e-90
1.40215e-87
3.28234e-84
6.99013e-20
4.57731e-20
9.29546e-21
9.40053e-22
1.13857e-19
5.84559e-20
2.47553e-20
8.55811e-21
1.27196e-19
4.95597e-20
1.87063e-20
6.1504e-21
4.2351e-20
1.82315e-20
6.73606e-21
2.0546e-21
8.81103e-21
4.078e-21
1.44435e-21
4.00252e-22
1.46889e-21
6.98171e-22
2.39794e-22
6.32884e-23
2.50303e-22
9.87238e-23
3.15014e-23
7.89913e-24
4.19051e-23
1.36922e-23
3.86927e-24
8.9799e-25
5.48015e-24
1.79113e-24
4.49047e-25
9.37148e-26
6.7423e-25
2.1572e-25
4.79548e-26
8.87365e-27
6.75734e-26
2.34105e-26
4.49382e-27
7.25863e-28
6.19348e-27
2.3773e-27
3.81067e-28
5.34159e-29
6.69038e-28
2.07845e-28
2.88448e-29
3.6422e-30
6.0897e-29
1.5757e-29
1.98352e-30
2.30989e-31
5.20836e-30
1.09872e-30
1.28868e-31
1.40451e-32
4.06431e-31
7.21502e-32
7.91937e-33
8.15722e-34
3.05223e-32
4.48982e-33
4.59072e-34
4.46189e-35
2.24379e-33
2.6521e-34
2.51787e-35
2.22436e-36
1.55735e-34
1.45467e-35
1.30303e-36
9.917e-38
9.82366e-36
7.13622e-37
5.35475e-38
3.8825e-39
5.72311e-37
3.29416e-38
2.06103e-39
1.40977e-40
2.98537e-38
1.40887e-39
7.48954e-41
4.6574e-42
1.36736e-39
5.41097e-41
2.49522e-42
1.38598e-43
5.47986e-41
1.85352e-42
7.49206e-44
3.69386e-45
1.84653e-42
5.42174e-44
1.98586e-45
8.78092e-47
5.47672e-44
1.3869e-45
4.61266e-47
1.81621e-48
1.13913e-45
2.39944e-47
1.08571e-48
3.62695e-50
2.26855e-47
4.12045e-49
1.6739e-50
5.12189e-52
3.63498e-49
5.88523e-51
2.22503e-52
6.42257e-54
4.83394e-51
7.07648e-53
2.44754e-54
6.62047e-56
5.38769e-53
7.16727e-55
2.24564e-56
5.72847e-58
4.68876e-55
5.93676e-57
1.67289e-58
4.10245e-60
3.21961e-57
4.08354e-59
1.02896e-60
2.44609e-62
1.62023e-59
2.09217e-61
4.99142e-63
1.16623e-64
6.81749e-62
8.26884e-64
1.97411e-65
4.5431e-67
3.28465e-64
2.70485e-66
6.39162e-68
1.48043e-69
3.99804e-67
7.53466e-69
1.49855e-70
3.90812e-72
4.22835e-70
1.33875e-71
2.65633e-73
8.00596e-75
3.84156e-73
1.56063e-74
3.91923e-76
1.33226e-77
2.95467e-76
1.26661e-77
5.1108e-79
1.87913e-80
1.81534e-79
7.4555e-81
6.01097e-82
2.34113e-83
9.7629e-83
5.3203e-84
5.32589e-85
2.68947e-86
9.51231e-23
6.5765e-24
2.66556e-25
6.79687e-27
1.39203e-28
2.45339e-30
3.7814e-32
5.13543e-34
6.22703e-36
6.82012e-38
7.16701e-40
7.09605e-42
6.2082e-44
3.8384e-46
1.97479e-48
8.26067e-51
2.48306e-53
4.71489e-56
4.22232e-59
1.13483e-21
7.71103e-23
3.58116e-24
1.07814e-25
2.41395e-27
4.16577e-29
5.88294e-31
7.01987e-33
7.3472e-35
6.94105e-37
6.14287e-39
5.02842e-41
2.85847e-43
1.37643e-45
6.01561e-48
2.0694e-50
5.18983e-53
8.30421e-56
6.31676e-59
8.26562e-22
5.42805e-23
2.49758e-24
7.78006e-26
1.69146e-27
2.9205e-29
4.07686e-31
4.65362e-33
4.49116e-35
3.76101e-37
2.8274e-39
1.90716e-41
1.09636e-43
5.09929e-46
1.99092e-48
6.11428e-51
1.37731e-53
1.99481e-56
1.38258e-59
2.5763e-22
2.18896e-23
9.69503e-25
3.16646e-26
7.6385e-28
1.27187e-29
1.73038e-31
2.0397e-33
2.14463e-35
2.09863e-37
1.50591e-39
7.29899e-42
3.20416e-44
1.32094e-46
4.64996e-49
1.30805e-51
2.71539e-54
3.64231e-57
2.3428e-60
4.45969e-23
3.50093e-24
1.43266e-25
4.6835e-27
1.19051e-28
2.43303e-30
3.85642e-32
4.73935e-34
4.51258e-36
3.19127e-38
2.06894e-40
1.18214e-42
5.74519e-45
2.3468e-47
7.93128e-50
2.1083e-52
4.10059e-55
5.13217e-58
3.07098e-61
6.41922e-24
5.02751e-25
2.59856e-26
7.86075e-28
1.97269e-29
3.83533e-31
5.95705e-33
7.48636e-35
7.6707e-37
6.44697e-39
4.43891e-41
2.45088e-43
1.1401e-45
4.43878e-48
1.41551e-50
3.51684e-53
6.34101e-56
7.32048e-59
4.02855e-62
7.32343e-25
5.34355e-26
2.81724e-27
8.71239e-29
2.2585e-30
4.55813e-32
7.26765e-34
9.29882e-36
9.58526e-38
7.94725e-40
5.47722e-42
3.08846e-44
1.44275e-46
5.52284e-49
1.69759e-51
4.01035e-54
6.81253e-57
7.37253e-60
3.79267e-63
7.71703e-26
5.16235e-27
2.81545e-28
1.11391e-29
2.70413e-31
5.29919e-33
8.12905e-35
1.00835e-36
1.01833e-38
8.38093e-41
5.69205e-43
3.15113e-45
1.42996e-47
5.24706e-50
1.52757e-52
3.39322e-55
5.39799e-58
5.46237e-61
2.62675e-64
7.31874e-27
4.38072e-28
2.21531e-29
7.93982e-31
2.02519e-32
3.99542e-34
6.20135e-36
7.79255e-38
7.94893e-40
6.57006e-42
4.41946e-44
2.39726e-46
1.05075e-48
3.68595e-51
1.01768e-53
2.13281e-56
3.19167e-59
3.03396e-62
1.36951e-65
6.21379e-28
3.30048e-29
1.47767e-30
4.97311e-32
1.25713e-33
2.46555e-35
3.85295e-37
4.84234e-39
4.9075e-41
3.99701e-43
2.62136e-45
1.37802e-47
5.80796e-50
1.94698e-52
5.11614e-55
1.01667e-57
1.43904e-60
1.29154e-63
5.49531e-67
4.44832e-29
2.17185e-30
8.95936e-32
2.83918e-33
6.92988e-35
1.33634e-36
2.06059e-38
2.53938e-40
2.50638e-42
1.97507e-44
1.24567e-46
6.27688e-49
2.52655e-51
8.06391e-54
2.01717e-56
3.80691e-59
5.10848e-62
4.33802e-65
1.74266e-68
2.86511e-30
1.29731e-31
4.97089e-33
1.48795e-34
3.48434e-36
6.49973e-38
9.69223e-40
1.14459e-41
1.07893e-43
8.09747e-46
4.85675e-48
2.3273e-50
8.90213e-53
2.69698e-55
6.4325e-58
1.15399e-60
1.46896e-63
1.1804e-66
4.47584e-70
1.73559e-31
7.09293e-33
2.53594e-34
7.15866e-36
1.59346e-37
2.82555e-39
4.00533e-41
4.4604e-43
3.96508e-45
2.80447e-47
1.5873e-49
7.18938e-52
2.60192e-54
7.43939e-57
1.68781e-59
2.87701e-62
3.4755e-65
2.64313e-68
9.45721e-72
1.00725e-32
3.6663e-34
1.19608e-35
3.14953e-37
6.57059e-39
1.09308e-40
1.45928e-42
1.50124e-44
1.24364e-46
8.23154e-49
4.37523e-51
1.86457e-53
6.35682e-56
1.71062e-58
3.75073e-61
6.09855e-64
6.97268e-67
4.99928e-70
1.68177e-73
5.63887e-34
1.84143e-35
5.25852e-37
1.24598e-38
2.39992e-40
3.70152e-42
4.63606e-44
4.40162e-46
3.389e-48
2.08785e-50
1.03771e-52
4.14885e-55
1.33026e-57
3.33292e-60
6.92157e-63
1.07236e-65
1.16693e-68
7.9199e-72
2.51058e-75
3.02406e-35
8.8433e-37
2.21107e-38
4.52149e-40
7.74289e-42
1.11407e-43
1.3208e-45
1.29533e-47
1.00001e-49
6.28975e-52
3.18647e-54
1.29581e-56
4.1583e-59
1.03244e-61
1.61565e-64
2.05417e-67
1.89813e-70
1.14654e-73
3.31142e-77
1.53931e-36
4.02561e-38
8.70399e-40
1.53954e-41
2.27139e-43
2.91314e-45
3.27107e-47
3.11482e-49
2.35412e-51
1.45327e-53
7.27237e-56
2.93828e-58
9.45732e-61
2.38585e-63
4.34859e-66
5.8275e-69
5.45964e-72
3.21727e-75
8.89505e-79
7.05417e-38
1.66722e-39
3.01704e-41
4.72456e-43
6.13225e-45
6.9057e-47
6.78115e-49
6.14726e-51
4.47661e-53
2.67931e-55
1.30346e-57
5.13549e-60
1.61839e-62
4.03742e-65
7.66904e-68
1.03686e-70
9.66236e-74
5.57093e-77
1.48746e-80
2.89322e-39
5.76586e-41
9.49581e-43
1.32182e-44
1.52544e-46
1.52412e-48
1.31391e-50
1.07175e-52
7.19715e-55
4.13212e-57
1.93819e-59
7.3852e-62
2.25436e-64
5.45648e-67
1.01559e-69
1.35374e-72
1.23808e-75
6.94524e-79
1.78681e-82
1.04614e-40
1.81211e-42
2.72612e-44
3.38766e-46
3.49632e-48
3.12304e-50
2.38971e-52
1.75039e-54
1.0588e-56
5.52038e-59
2.45468e-61
8.98106e-64
2.64072e-66
6.1617e-69
1.1084e-71
1.43365e-74
1.27065e-77
6.88045e-81
1.69564e-84
3.42859e-42
5.23355e-44
7.11313e-46
7.93292e-48
7.36619e-50
5.92395e-52
4.062e-54
2.6772e-56
1.46476e-58
6.91576e-61
2.81271e-63
9.48079e-66
2.66842e-68
5.97191e-71
1.03147e-73
1.28449e-76
1.09488e-79
5.69046e-83
1.33633e-86
1.0147e-43
1.3721e-45
1.68536e-47
1.69427e-49
1.42356e-51
1.03653e-53
6.4169e-56
3.82079e-58
1.89902e-60
8.14337e-63
3.02873e-65
9.38383e-68
2.436e-70
5.0873e-73
8.39089e-76
1.0005e-78
8.1713e-82
4.0589e-85
9.04897e-89
2.70699e-45
3.25236e-47
3.62021e-49
3.29109e-51
2.51664e-53
1.66736e-55
9.37362e-58
5.06573e-60
2.29708e-62
8.98285e-65
3.06421e-67
8.7274e-70
2.09126e-72
4.06378e-75
6.23266e-78
6.95861e-81
5.39536e-84
2.5552e-87
5.37699e-91
6.45273e-47
6.90677e-49
7.03017e-51
5.79555e-53
4.05991e-55
2.45729e-57
1.26038e-59
6.21774e-62
2.58158e-64
9.24324e-67
2.90513e-69
7.63176e-72
1.69269e-74
3.05536e-77
4.36358e-80
4.56505e-83
3.334e-86
1.48612e-89
2.92706e-93
1.37562e-48
1.31042e-50
1.22978e-52
9.19723e-55
5.95708e-57
3.30689e-59
1.55325e-61
7.04587e-64
2.68671e-66
8.84181e-69
2.57423e-71
6.26202e-74
1.2906e-76
2.16848e-79
2.88988e-82
2.83449e-85
1.94481e-88
8.17191e-92
1.50846e-95
2.54266e-50
2.15984e-52
1.9409e-54
1.31688e-56
7.95938e-59
4.04625e-61
1.74329e-63
7.35504e-66
2.58219e-68
7.83886e-71
2.12878e-73
4.81061e-76
9.25544e-79
1.4528e-81
1.81157e-84
1.66968e-87
1.07778e-90
4.26485e-94
7.39977e-98
4.2442e-52
3.14902e-54
2.70002e-56
1.65335e-58
9.63645e-61
4.50951e-63
1.78196e-65
7.06543e-68
2.28337e-70
6.40862e-73
1.642e-75
3.45626e-78
6.24211e-81
9.17969e-84
1.07348e-86
9.33576e-90
5.67939e-93
2.11988e-96
3.46665e-100
5.39908e-54
3.62998e-56
3.57706e-58
1.93139e-60
1.05529e-62
4.49604e-65
1.61972e-67
6.26446e-70
1.8636e-72
4.82569e-75
1.18077e-77
2.31603e-80
3.95914e-83
5.46986e-86
6.0099e-89
4.95039e-92
2.84576e-95
1.00422e-98
1.55159e-102
6.25706e-56
3.82632e-58
3.48488e-60
1.70594e-62
1.1063e-64
4.19448e-67
1.34984e-69
5.05283e-72
1.37978e-74
3.28854e-77
7.95618e-80
1.45345e-82
2.36964e-85
3.07103e-88
3.17489e-91
2.48933e-94
1.35558e-97
4.54147e-101
6.63388e-105
6.0571e-58
3.50135e-60
3.18497e-62
1.44867e-64
9.06617e-67
3.0789e-69
9.10849e-72
4.02347e-74
9.75596e-77
2.07427e-79
4.95403e-82
8.37269e-85
1.34276e-87
1.62669e-90
1.58573e-93
1.19117e-96
6.16152e-100
1.9585e-103
2.70286e-107
4.98861e-60
2.78022e-62
2.48277e-64
1.06889e-66
6.65696e-69
2.16818e-71
5.99871e-74
2.5458e-76
5.61297e-79
1.0802e-81
3.12348e-84
4.63092e-87
8.5586e-90
8.01221e-93
7.38147e-96
5.43266e-99
2.68968e-102
8.06725e-106
1.04976e-109
3.45763e-62
1.90983e-64
1.68427e-66
7.00873e-69
4.24838e-71
1.3446e-73
3.54034e-76
1.50483e-78
3.13157e-81
5.6104e-84
1.5047e-86
2.00454e-89
4.61706e-92
3.90489e-95
3.28023e-98
4.41745e-101
1.86233e-104
3.4824e-108
3.85065e-112
2.02235e-64
1.12864e-66
9.92724e-69
4.06704e-71
2.39989e-73
7.51595e-76
1.91289e-78
7.93773e-81
1.58272e-83
2.72518e-86
7.23862e-89
9.19702e-92
1.98148e-94
1.5819e-97
1.15845e-100
2.01979e-103
7.50071e-107
1.31075e-110
1.34869e-114
9.83688e-67
5.70077e-69
5.07796e-71
2.08405e-73
1.20434e-75
3.78172e-78
9.42485e-81
3.82156e-83
7.39782e-86
1.23685e-88
3.17923e-91
3.8815e-94
8.11399e-97
6.45493e-100
4.55365e-103
7.37766e-106
2.70701e-109
4.59597e-113
4.45577e-117
4.01164e-69
2.47256e-71
2.26468e-73
9.46412e-76
5.39775e-78
1.71872e-80
4.23962e-83
1.68487e-85
3.19702e-88
5.24056e-91
1.30723e-93
1.54601e-96
3.068e-99
2.43708e-102
1.65531e-105
2.52696e-108
9.38823e-112
1.53475e-115
1.38642e-119
1.37298e-71
9.2517e-74
8.84118e-76
3.82317e-78
2.17328e-80
7.08993e-83
1.74803e-85
6.83411e-88
1.28018e-90
2.0729e-93
5.02997e-96
5.79166e-99
1.0888e-101
8.66961e-105
5.70228e-108
8.08109e-111
3.04861e-114
4.81832e-118
4.05565e-122
3.8807e-74
2.98411e-76
3.03504e-78
1.38092e-80
7.90967e-83
2.66874e-85
6.63515e-88
2.56276e-90
4.76974e-93
7.67865e-96
1.81456e-98
2.04342e-101
3.63809e-104
2.90337e-107
1.85185e-110
2.43161e-113
9.28979e-117
1.42122e-120
1.11489e-124
9.2796e-77
8.35253e-79
9.24319e-81
4.49345e-83
2.62199e-85
9.22519e-88
2.33088e-90
8.9302e-93
1.66067e-95
2.67245e-98
6.15531e-101
6.80942e-104
1.14809e-106
9.16773e-110
5.67683e-113
6.90012e-116
2.65345e-119
3.93297e-123
2.88182e-127
1.9266e-79
2.06562e-81
2.5289e-83
1.33089e-85
7.98804e-88
2.95032e-90
7.62512e-93
2.90835e-95
5.42956e-98
8.77021e-101
1.96931e-103
2.14843e-106
3.43294e-109
2.73741e-112
1.64662e-115
1.84856e-118
7.10141e-122
1.02026e-125
7.00066e-130
3.53514e-82
4.59323e-84
6.29391e-86
3.62662e-88
2.25746e-90
8.79636e-93
2.338e-95
8.90341e-98
1.67514e-100
2.72381e-103
5.96318e-106
6.43417e-109
9.75866e-112
7.74803e-115
4.52666e-118
4.67946e-121
1.78277e-124
2.48184e-128
1.59689e-132
5.87343e-85
9.41492e-87
1.44995e-88
9.21457e-91
5.98306e-93
2.46715e-95
6.77159e-98
2.57939e-100
4.9044e-103
8.04132e-106
1.7159e-108
1.83397e-111
2.64675e-114
2.0839e-117
1.18108e-120
1.12001e-123
4.20133e-127
5.66195e-131
3.41553e-135
8.64344e-88
1.78992e-89
3.11929e-91
2.20571e-93
1.50188e-95
6.56288e-98
1.86532e-100
7.11254e-103
1.36885e-105
2.26456e-108
4.7061e-111
4.98452e-114
6.86421e-117
5.33295e-120
2.9258e-123
2.53602e-126
9.29787e-130
1.21076e-133
6.8416e-138
)
;

boundaryField
{
    leftWall
    {
        type            zeroGradient;
    }
    rightWall
    {
        type            zeroGradient;
    }
    lowerWall
    {
        type            zeroGradient;
    }
    atmosphere
    {
        type            inletOutlet;
        inletValue      uniform 0;
        value           nonuniform List<scalar> 
46
(
0
0
0
0
0
0
0
0
0
0
0
0
0
0
0
0
0
0
0
0
0
0
3.28234e-84
9.7629e-83
5.3203e-84
5.32589e-85
2.68947e-86
8.64344e-88
1.78992e-89
3.11929e-91
2.20571e-93
1.50188e-95
6.56288e-98
1.86532e-100
7.11254e-103
1.36885e-105
2.26456e-108
4.7061e-111
4.98452e-114
6.86421e-117
5.33295e-120
2.9258e-123
2.53602e-126
9.29787e-130
1.21076e-133
6.8416e-138
)
;
    }
    defaultFaces
    {
        type            empty;
    }
}


// ************************************************************************* //
