/*--------------------------------*- C++ -*----------------------------------*\
| =========                 |                                                 |
| \\      /  F ield         | foam-extend: Open Source CFD                    |
|  \\    /   O peration     | Version:     4.1                                |
|   \\  /    A nd           | Web:         http://www.foam-extend.org         |
|    \\/     M anipulation  |                                                 |
\*---------------------------------------------------------------------------*/
FoamFile
{
    version     2.0;
    format      ascii;
    class       volScalarField;
    location    "0.1";
    object      p;
}
// * * * * * * * * * * * * * * * * * * * * * * * * * * * * * * * * * * * * * //

dimensions      [1 -1 -2 0 0 0 0];

internalField   nonuniform List<scalar> 
2268
(
2260.51
2237.76
2211.6
2138.17
2086.66
1964.61
1860.43
1723.82
1531.87
1471.48
1104.62
1612.04
1363.27
1203.06
984.398
739.221
627.72
435.974
271.355
31.884
-16.7922
82.3791
77.8295
2200.53
2177.54
2151.82
2077.59
2027.18
1903.32
1800.02
1663
1462.9
1416.94
1064.56
1502.14
1293.21
1130.68
913.586
667.394
521.725
410.609
227.959
-30.865
-21.3696
51.007
45.4712
2139.51
2116.04
2091.17
2015.37
1967.2
1839.86
1737.08
1590.07
1386.94
1300.88
1188.41
1344.7
1202.27
1043.39
853.801
582.192
458.744
301.37
158
-52.8161
3.84442
16.1406
22.3254
2077.36
2053.2
2029.5
1951.54
1907.15
1772.02
1678.58
1507.4
1296.62
1395.13
1164.66
1243.03
1123.23
963.137
821.358
662.893
334.364
130.324
11.4621
-24.5042
6.70265
8.12114
12.9504
2014.3
1989.26
1966.86
1886.8
1845.23
1708.12
1605.32
1457.78
1200.55
1323.98
1151.13
1162.6
1037.85
881.977
719.78
531.793
395.866
-73.5414
-49.4945
0.554866
3.40196
5.68272
8.17138
1950.44
1924.36
1903.41
1820.21
1784.48
1636
1524.35
1301.42
1285.05
1240.72
1110.6
1074.28
946.179
795.931
627.99
483.416
205.961
-81.4314
-10.5886
0.552717
2.55039
4.49684
4.98695
1885.07
1857.93
1838.24
1753.92
1725.59
1549.24
1492.99
1215.47
1256.43
1169.99
1056.17
995.281
862.699
709.466
542.125
349.993
89.0967
-6.86527
1.82663
-1.23413
1.82072
3.47887
2.76342
1821.91
1793.04
1772.75
1680.76
1643.24
1503.77
1342.41
1235.1
1194.92
1110.51
1006.89
922.969
788.467
637.543
454.948
248.232
26.6613
13.6363
0.867094
-0.172154
0.976671
2.3452
1.31044
0.607386
0.625792
0.606484
0.596886
0.550692
0.5235
0.491362
0.467129
0.440327
0.41324
0.393093
0.369866
0.344869
0.349568
0.285677
0.29715
0.277241
0.272985
0.268062
0.536658
0.549102
0.547892
0.53787
0.492309
0.465213
0.431736
0.407175
0.38059
0.353403
0.333349
0.306871
0.284649
0.273213
0.231689
0.2374
0.218047
0.213655
0.208806
0.464692
0.519994
0.488505
0.483117
0.43338
0.408267
0.37257
0.34851
0.320911
0.295084
0.275258
0.246326
0.23616
0.204596
0.173393
0.175797
0.157989
0.153505
0.148862
0.392056
0.438852
0.43399
0.425828
0.376872
0.35163
0.313751
0.289731
0.261194
0.233662
0.218272
0.180905
0.173208
0.143541
0.113375
0.114194
0.0975483
0.0930336
0.0886284
0.298438
0.376849
0.380314
0.369435
0.317222
0.294756
0.255064
0.232823
0.200013
0.181906
0.152051
0.136458
0.087223
0.0822083
0.0535167
0.0520754
0.0366785
0.0321296
0.0279825
0.217604
0.307973
0.322775
0.319179
0.250815
0.242146
0.197438
0.173044
0.138805
0.114425
0.109674
0.0454926
0.0385064
0.0197729
-0.00795864
-0.0104714
-0.0246261
-0.029151
-0.0330194
0.127365
0.213081
0.275921
0.253288
0.206118
0.18602
0.141266
0.119938
0.079654
0.0784325
0.0093611
-0.00113727
-0.0333562
-0.0442233
-0.0702734
-0.0732982
-0.0862432
-0.0907062
-0.0942995
0.0271348
0.132768
0.205744
0.204132
0.158286
0.134951
0.0851658
0.0562435
0.0177401
-0.0267002
-0.0373188
-0.0709313
-0.0841149
-0.10609
-0.132278
-0.135958
-0.147957
-0.15237
-0.155717
1717.72
1688.98
1669.67
1604.1
1547.43
1263.1
1364.11
1152.07
1116.41
1030.37
913.67
810.668
647.317
508.671
365.888
125.649
2.84768
4.81075
0.20176
-0.027247
0.77569
1.71076
2.13391
1590.73
1548.98
1531.73
1338.82
1434.47
1253.78
1197.49
1093.83
1001.6
911.391
795.286
648.663
496.711
405.801
-75.7831
24.4333
5.96446
1.02036
0.583382
0.433464
1.24662
1.96579
0.805101
1435.01
1408.88
1388.14
1283.67
1261.24
1140.25
1101.79
991.777
886.988
793.744
630.612
435.311
351.029
-111.941
34.372
7.45575
2.11676
0.393484
0.308528
0.44995
1.39834
0.536596
1.00458
1296.92
1271.43
1247.84
1165.56
1142.94
1051.67
980.957
890.707
783.244
678.25
476.725
280.104
-312.226
86.7621
106.533
7.51879
0.212904
-0.0479321
0.301982
0.16525
0.0136335
0.274948
0.548137
1161.75
1144.76
1119.5
1064.47
1021.42
945.285
882.933
794.409
698.667
598.575
440.021
283.932
16.0518
27.6495
7.92665
-0.787529
-0.654737
-0.573981
-0.330063
-0.226959
-0.166348
-0.00503201
-0.00213259
1041.32
1025.27
998.391
952.307
906.885
845.904
779.809
700.24
619.566
526.129
384.007
255.963
48.8837
12.577
1.07424
-1.01568
-1.14585
-0.731593
-0.580499
0.190838
-0.315461
-0.213769
-0.206427
924.812
911.319
885.795
846.856
800.799
747.871
684.236
621.926
571.524
490.848
377.681
249.323
54.351
3.85779
-1.10605
-1.76808
-1.22182
-0.943544
-0.409588
-0.868454
-0.689531
-0.661702
-0.599244
822.299
809.008
782.447
745.238
696.273
647.558
578.964
533.676
479.699
424.345
338.189
221.551
22.6916
0.342446
-1.41136
-1.6938
-1.05067
-0.877856
-1.33217
-1.08166
-0.950739
-0.887059
-0.795959
721.332
708.665
680.205
641.47
588.441
541.651
478.108
432.895
370.14
347.138
303.446
195.725
3.41847
-1.88053
-2.70967
-1.91988
-1.94674
-1.7978
-1.5901
-1.40061
-1.34638
-1.25416
-1.17058
636.379
622.608
590.348
545.77
487.81
442.265
370.762
314.197
364.652
445.772
429.51
178.323
2.52618
-1.76412
-2.56825
-1.7278
-2.00336
-1.60531
-1.76029
-1.64627
-1.57843
-1.5022
-1.37782
568.553
554.989
522.271
467.264
392.576
315.546
157.317
-16.3415
-560.09
-518.964
-561.408
-82.8001
-4.69183
0.595236
-2.01493
-2.13511
-2.18576
-2.02899
-2.03885
-1.91967
-1.85235
-1.76668
-1.67781
517.434
509.415
467.733
397.842
326.635
250.538
154.148
55.9923
-79.6561
-61.2241
-23.3107
-58.3527
-3.11305
-3.74504
-3.35686
-2.63886
-2.59098
-2.37062
-2.31482
-2.2132
-2.12404
-2.05058
-2.01225
418.032
401.428
357.248
300.651
244.046
188.579
166.609
94.5081
-31.3961
-57.3373
9.16932
82.1754
2.96725
-7.16404
-3.66757
-3.42424
-2.84727
-2.7265
-2.62455
-2.52287
-2.46085
-2.34577
-2.40393
237.99
232.136
219.997
189.599
133.926
114.668
108.929
45.9727
-191.414
-147.247
-170.63
-445.635
-60.0653
-5.77938
-3.25114
-3.08659
-3.01449
-2.91932
-2.89911
-2.82636
-2.67785
-2.79921
-2.23775
76.5691
74.511
71.8034
61.9972
30.8334
39.5187
44.8837
32.8007
242.89
-148.742
-75.475
-81.9129
-29.5937
8.02572
-3.93828
-3.46184
-3.05712
-3.15975
-3.10189
-2.96408
-3.15219
-2.68173
-2.40325
15.4107
14.7985
13.2263
8.17282
5.08147
4.67534
5.60552
6.35674
16.4477
41.985
-3.48183
13.1535
2.84492
-1.12596
-4.23785
-4.04928
-3.76761
-3.6419
-3.74991
-3.47748
-3.06688
-2.86368
-2.61719
-3.0786
-3.07773
-3.03345
-3.43148
-3.49014
-3.51483
-3.34371
-3.11676
-2.36013
-1.88423
0.214038
-2.95508
-3.03272
-5.0176
-5.71334
-4.94261
-4.1164
-4.12741
-3.24705
-3.14334
-3.05267
-2.93058
-2.75843
-3.76527
-3.74807
-3.72037
-3.58333
-3.46062
-3.43341
-3.52632
-3.54989
-3.5244
-3.41323
-4.57491
-5.433
-5.79457
-6.13026
-6.62305
-5.89476
-4.57604
-3.77757
-3.6723
-3.3954
-3.19843
-3.01547
-2.88259
-5.16687
-4.90558
-4.25778
-4.75954
-4.98419
-4.88654
-4.48091
-4.47628
-4.51985
-4.39608
-4.34631
-4.85729
-5.63648
-5.86618
-5.89046
-5.7694
-4.27932
-3.63209
-3.65755
-3.38736
-3.25985
-3.10424
-2.99586
-4.74885
-4.5896
-5.07763
-4.75352
-4.51981
-4.48867
-4.4874
-5.24795
-4.20485
-5.01844
-4.48335
-5.44798
-4.72719
-4.70266
-4.82911
-5.59524
-4.31494
-4.06688
-3.63449
-3.45132
-3.31401
-3.17499
-3.05752
-4.74542
-4.70583
-4.58672
-4.51455
-4.50778
-4.44908
-4.09
-4.60358
-4.34427
-4.21595
-4.35402
-4.75604
-4.02508
-4.46612
-4.11632
-5.14123
-4.18085
-3.92427
-3.65901
-3.52176
-3.39728
-3.28063
-3.1835
-4.61327
-4.58035
-4.59506
-4.6812
-4.43145
-4.47265
-4.37286
-4.17543
-4.29201
-4.49869
-4.39878
-4.37935
-4.14401
-4.17978
-3.77754
-4.85634
-4.08862
-4.04471
-3.72569
-3.63144
-3.48517
-3.38405
-3.27578
-4.44625
-4.42776
-4.51971
-4.39083
-4.20269
-4.22657
-3.96257
-4.27171
-4.30629
-4.45975
-3.84513
-4.02111
-3.9485
-4.10252
-3.76598
-4.64961
-4.27983
-3.97735
-3.81681
-3.69313
-3.5713
-3.48977
-3.39265
-4.65482
-4.6527
-4.46897
-4.16176
-4.18398
-4.03792
-4.20697
-4.10843
-4.2977
-3.8684
-4.15769
-4.07572
-4.04105
-4.10144
-4.10318
-4.11084
-4.5009
-4.24598
-3.88195
-3.84031
-3.70199
-3.60647
-3.48781
-4.04707
-4.09641
-4.04633
-4.34125
-4.32976
-4.25719
-4.19709
-4.78341
-4.51214
-4.32387
-4.22262
-4.17839
-4.10759
-4.15924
-4.11094
-4.11149
-4.3936
-4.09825
-4.14465
-3.86053
-3.72491
-3.77265
-3.63095
-4.52349
-4.54802
-4.45266
-4.30585
-4.26623
-4.28524
-4.80072
-4.64768
-4.13747
-4.25364
-4.19305
-4.17606
-4.20568
-4.11033
-4.16865
-4.20942
-4.1783
-4.26621
-4.30112
-4.12946
-4.00605
-3.71942
-3.65243
-4.41565
-4.48191
-4.45975
-4.87282
-4.91997
-4.91283
-4.76618
-4.42824
-4.43711
-4.37119
-4.33001
-4.27794
-4.27253
-4.2586
-4.25138
-4.202
-4.26981
-4.05335
-4.23149
-4.1303
-4.06577
-4.00454
-3.94555
-5.11171
-5.09331
-5.07821
-4.76879
-4.71973
-4.64631
-4.76055
-4.37244
-4.47115
-4.40085
-4.37438
-4.34197
-4.33264
-4.31884
-4.32065
-4.30174
-4.30655
-4.35065
-4.15487
-4.42327
-4.17186
-4.11121
-4.02507
-4.84042
-4.8235
-4.80837
-4.80265
-4.75369
-4.84803
-4.55372
-4.56468
-4.53279
-4.49931
-4.4684
-4.44583
-4.4283
-4.42558
-4.39747
-4.39315
-4.33515
-4.37106
-4.25981
-4.40549
-4.36036
-4.25672
-4.16299
-4.93647
-4.91361
-4.90256
-4.81526
-4.87104
-4.66361
-4.68159
-4.61727
-4.60009
-4.55862
-4.5332
-4.5155
-4.49129
-4.47963
-4.48411
-4.47179
-4.44883
-4.42329
-4.39494
-4.32222
-4.3569
-4.31814
-4.26725
-4.91568
-4.90751
-4.88602
-4.91849
-4.77927
-4.78876
-4.73335
-4.71423
-4.67769
-4.65596
-4.62847
-4.62665
-4.57686
-4.65927
-4.58964
-4.57246
-4.54399
-4.50768
-4.49101
-4.5269
-4.39503
-4.54819
-4.38827
-4.98888
-4.96596
-4.97688
-4.87583
-4.8828
-4.83421
-4.81861
-4.78113
-4.76001
-4.73461
-4.71371
-4.70295
-4.68572
-4.68361
-4.66931
-4.65468
-4.63661
-4.62117
-4.58767
-4.6051
-4.52426
-4.60844
-4.49794
-5.01533
-5.00883
-4.99335
-4.96253
-4.94321
-4.91968
-4.89166
-4.87039
-4.848
-4.82964
-4.81305
-4.80312
-4.78906
-4.79077
-4.76736
-4.75363
-4.73289
-4.71296
-4.69799
-4.67513
-4.65281
-4.61434
-4.70592
-5.07802
-5.0677
-5.05875
-5.0315
-5.01718
-4.99192
-4.97447
-4.95343
-4.93579
-4.9193
-4.90474
-4.8934
-4.88088
-4.87297
-4.85944
-4.84601
-4.82868
-4.82035
-4.79238
-4.78163
-4.77923
-4.72148
-4.8095
-5.13781
-5.13293
-5.12292
-5.10811
-5.09287
-5.07632
-5.05925
-5.04305
-5.02782
-5.01406
-5.00179
-4.99146
-4.98064
-4.97242
-4.95956
-4.94647
-4.93304
-4.92044
-4.90951
-4.88875
-4.88576
-4.84251
-4.89129
-5.21093
-5.2062
-5.19848
-5.18663
-5.17468
-5.1605
-5.14702
-5.13342
-5.12065
-5.10873
-5.0978
-5.08778
-5.07763
-5.06858
-5.0577
-5.04467
-5.03239
-5.01999
-5.00398
-4.99008
-4.97166
-4.96409
-4.90652
-5.2862
-5.28313
-5.27727
-5.26896
-5.25917
-5.24838
-5.23724
-5.22617
-5.21555
-5.20545
-5.19604
-5.18694
-5.17777
-5.16918
-5.1591
-5.14716
-5.13762
-5.12706
-5.11765
-5.10771
-5.09222
-5.07663
-5.06965
-5.36833
-5.36586
-5.36116
-5.35459
-5.34681
-5.33804
-5.32891
-5.31966
-5.31062
-5.30174
-5.29331
-5.28472
-5.27629
-5.26855
-5.26007
-5.24963
-5.24205
-5.22972
-5.22676
-5.2069
-5.20575
-5.17375
-5.19257
-5.45711
-5.45532
-5.45187
-5.44704
-5.44112
-5.43445
-5.42738
-5.42016
-5.41302
-5.40579
-5.39871
-5.39063
-5.3817
-5.37236
-5.35992
-5.34824
-5.34112
-5.33382
-5.33018
-5.32616
-5.31913
-5.30583
-5.31642
-5.51833
-5.51717
-5.51489
-5.51176
-5.50789
-5.50354
-5.49891
-5.49421
-5.48966
-5.4852
-5.48152
-5.47768
-5.47439
-5.47266
-5.47071
-5.46504
-5.46035
-5.45392
-5.45032
-5.44167
-5.44173
-5.43444
-5.43666
-5.66757
-5.66666
-5.66453
-5.66159
-5.65781
-5.65342
-5.64856
-5.64331
-5.63771
-5.63143
-5.62465
-5.61527
-5.60208
-5.58197
-5.54734
-5.53316
-5.52953
-5.52809
-5.53197
-5.53453
-5.54027
-5.53976
-5.55064
-5.62564
-5.62577
-5.62622
-5.62693
-5.6279
-5.62912
-5.63059
-5.63239
-5.63463
-5.63733
-5.64133
-5.64814
-5.66042
-5.68026
-5.70192
-5.70389
-5.70235
-5.69712
-5.69122
-5.68648
-5.6879
-5.68327
-5.67608
-1.47999
-1.79341
-0.676612
-0.445059
-0.534612
-0.440214
-0.0529829
0.0584498
1.08448
1.00526
0.904463
0.755315
0.762584
0.302725
0.422906
0.520156
0.00393294
0.079378
0.199812
0.28166
-0.202933
-0.143714
-0.0925457
-0.0567385
-0.705885
-0.477551
-0.443633
-0.386032
-0.532116
-0.66964
-0.622429
-0.581549
-1.13683
-1.03954
-0.919153
-0.880497
-1.30866
-1.23484
-1.17632
-1.14054
-1.61943
-1.516
-1.46348
-1.40549
-2.05641
-1.85572
-1.7575
-1.67387
-2.10503
-1.99115
-1.93887
-1.86131
-2.21878
-2.15928
-2.1102
-2.04118
-2.44693
-2.33337
-2.28982
-2.23377
-2.50374
-2.46143
-2.42133
-2.38053
-2.6867
-2.63918
-2.59787
-2.54882
-2.81053
-2.76536
-2.73049
-2.67961
-2.93225
-2.86926
-2.93003
-2.80241
-2.98943
-2.93484
-2.8886
-2.87111
-3.11588
-3.07383
-3.04013
-3.00148
-3.21181
-3.17136
-3.14012
-3.10926
-3.33233
-3.29533
-3.26142
-3.23141
-3.43556
-3.4023
-3.37971
-3.35399
-3.57914
-3.53766
-3.49656
-3.46179
-3.6066
-3.57189
-3.60894
-3.59017
-3.86071
-3.82155
-3.70327
-3.65361
-3.98551
-3.96586
-3.95842
-3.93928
-4.11525
-4.0795
-4.04731
-4.01641
-4.2319
-4.21111
-4.18891
-4.16853
-4.36875
-4.33962
-4.31933
-4.29695
-4.48187
-4.45761
-4.44024
-4.42264
-4.60833
-4.60094
-4.57435
-4.5596
-4.73088
-4.72199
-4.69629
-4.68314
-4.86516
-4.84502
-4.81881
-4.8048
-4.97154
-4.93218
-4.93584
-4.9205
-5.03235
-5.0804
-5.0416
-5.0466
-5.14504
-5.18614
-5.15772
-5.16819
-5.28204
-5.30811
-5.28273
-5.29095
-5.416
-5.43161
-5.41283
-5.42067
-5.54797
-5.54035
-5.5491
-5.53462
-5.67621
-5.67403
-5.67414
-5.67432
-0.33739
0.061807
0.113314
0.188455
0.0701485
0.0536862
0.00393235
-0.0275583
-0.0672013
-0.0877735
-0.133828
-0.15518
-0.220509
-0.202892
-0.231985
-0.233948
-0.24463
-0.248914
-0.251907
0.402754
-0.128338
0.0346915
0.0864455
-0.0263597
-0.0453973
-0.108573
-0.151994
-0.195697
-0.252109
-0.275955
-0.340877
-0.304693
-0.343164
-0.359511
-0.367248
-0.376224
-0.380597
-0.383208
0.860493
0.240726
0.0826948
-0.00329992
-0.10146
-0.182992
-0.248741
-0.294576
-0.333024
-0.351584
-0.374952
-0.40759
-0.457331
-0.471219
-0.490709
-0.499289
-0.507524
-0.511921
-0.514267
0.518549
0.570924
-0.0972348
-0.103978
-0.259119
-0.248645
-0.345764
-0.399633
-0.455271
-0.568952
-0.592153
-0.581353
-0.595234
-0.606505
-0.622091
-0.630526
-0.638087
-0.642421
-0.644594
0.318154
0.337975
-0.211885
-0.263683
-0.357048
-0.514208
-0.577553
-0.622728
-0.659997
-0.603859
-0.651052
-0.688697
-0.717718
-0.734848
-0.750799
-0.760146
-0.767418
-0.77177
-0.773852
-0.021027
-0.102139
-0.0620661
-0.421299
-0.490763
-0.524989
-0.589811
-0.638779
-0.698501
-0.767753
-0.813383
-0.826112
-0.851682
-0.865486
-0.879595
-0.888718
-0.895581
-0.899854
-0.901862
-0.296269
-0.310132
-0.240701
-0.639011
-0.637893
-0.717131
-0.789851
-0.834567
-0.880786
-0.897249
-0.931432
-0.954255
-0.978224
-0.993292
-1.00666
-1.01578
-1.02238
-1.02656
-1.02851
-0.561355
-0.550742
-0.623818
-0.620756
-0.814455
-0.83966
-0.906535
-0.94776
-0.992957
-1.02588
-1.06255
-1.08378
-1.10538
-1.12017
-1.13264
-1.1415
-1.14784
-1.15188
-1.15377
-0.832311
-0.792868
-0.707869
-0.982078
-0.96656
-1.00449
-1.06124
-1.0966
-1.13601
-1.16315
-1.19253
-1.21287
-1.23206
-1.24599
-1.25759
-1.26599
-1.27201
-1.27587
-1.27768
-1.08632
-0.982325
-1.10662
-1.09277
-1.12359
-1.16696
-1.20961
-1.2403
-1.27292
-1.29723
-1.32219
-1.34101
-1.35799
-1.37072
-1.38155
-1.38932
-1.39498
-1.39861
-1.40033
-1.3282
-1.31131
-1.26065
-1.27326
-1.30811
-1.32967
-1.36116
-1.38416
-1.41056
-1.4312
-1.4521
-1.46864
-1.48364
-1.49472
-1.50473
-1.51163
-1.51687
-1.5202
-1.5218
-1.56632
-1.49033
-1.45442
-1.46736
-1.47856
-1.49189
-1.51416
-1.52897
-1.54915
-1.56499
-1.58153
-1.59521
-1.60821
-1.61723
-1.62698
-1.63296
-1.63784
-1.64086
-1.64235
-1.77884
-1.70712
-1.66622
-1.65094
-1.64874
-1.65084
-1.66288
-1.67123
-1.68611
-1.69768
-1.7108
-1.72165
-1.73339
-1.7404
-1.74899
-1.75353
-1.75789
-1.7605
-1.76185
-1.9741
-1.90363
-1.84999
-1.82534
-1.81289
-1.80578
-1.8141
-1.81214
-1.82275
-1.82895
-1.83845
-1.84588
-1.85621
-1.8592
-1.86991
-1.87313
-1.87754
-1.87986
-1.88113
-2.16295
-2.08515
-2.02841
-1.99473
-1.9713
-1.9576
-1.95597
-1.95085
-1.95629
-1.95918
-1.96621
-1.97076
-1.97963
-1.98305
-1.99101
-1.99253
-1.99615
-1.99802
-1.99914
-2.31393
-2.25119
-2.1744
-2.15212
-2.12223
-2.10214
-2.10581
-2.08577
-2.09034
-2.08722
-2.09176
-2.09187
-2.10221
-2.09252
-2.10999
-2.11078
-2.11529
-2.11698
-2.1181
-2.48099
-2.408
-2.3288
-2.31641
-2.26519
-2.24678
-2.22682
-2.21946
-2.21753
-2.21512
-2.21759
-2.21832
-2.22357
-2.22581
-2.22887
-2.22986
-2.23313
-2.23433
-2.23524
-2.59591
-2.5671
-2.44874
-2.43589
-2.39795
-2.37359
-2.36419
-2.34919
-2.34619
-2.34156
-2.34137
-2.34117
-2.3443
-2.3431
-2.34869
-2.35021
-2.35339
-2.35468
-2.35553
-2.73579
-2.6406
-2.59871
-2.56595
-2.53146
-2.50724
-2.48854
-2.47427
-2.47135
-2.46602
-2.46498
-2.46495
-2.46692
-2.46749
-2.46977
-2.47087
-2.47295
-2.47404
-2.47473
-2.83316
-2.78355
-2.72583
-2.69198
-2.65833
-2.63418
-2.61793
-2.60279
-2.59411
-2.58875
-2.58698
-2.58703
-2.58772
-2.58852
-2.5907
-2.59191
-2.59369
-2.59477
-2.59541
-2.95417
-2.89815
-2.85112
-2.81568
-2.78502
-2.7603
-2.74246
-2.72854
-2.71941
-2.71196
-2.70698
-2.70928
-2.70867
-2.71003
-2.71151
-2.71273
-2.71436
-2.7155
-2.71615
-3.07102
-3.01944
-2.9746
-2.93833
-2.90983
-2.88553
-2.86727
-2.85357
-2.84316
-2.8362
-2.83158
-2.82945
-2.82763
-2.83147
-2.83233
-2.83339
-2.83538
-2.83673
-2.83748
-3.1884
-3.13591
-3.09735
-3.06123
-3.03525
-3.0099
-2.99117
-2.97842
-2.96726
-2.95965
-2.9551
-2.95219
-2.95078
-2.95143
-2.95234
-2.95344
-2.95655
-2.9584
-2.95914
-3.31649
-3.2629
-3.21951
-3.18112
-3.15889
-3.13399
-3.11548
-3.10342
-3.09125
-3.08321
-3.07868
-3.07478
-3.07355
-3.07324
-3.0737
-3.07472
-3.07827
-3.08048
-3.08088
-3.4176
-3.36439
-3.34804
-3.30955
-3.2866
-3.25566
-3.23627
-3.22778
-3.21576
-3.20757
-3.20279
-3.19766
-3.19651
-3.19544
-3.19573
-3.19752
-3.1995
-3.20303
-3.20383
-3.57417
-3.52487
-3.45974
-3.41728
-3.41174
-3.38606
-3.36684
-3.35251
-3.33755
-3.32887
-3.32619
-3.32107
-3.32065
-3.31839
-3.31818
-3.32019
-3.32221
-3.32415
-3.32602
-3.58617
-3.51899
-3.60127
-3.56389
-3.52044
-3.49077
-3.47433
-3.478
-3.46543
-3.45639
-3.45076
-3.44296
-3.44466
-3.44162
-3.44136
-3.44401
-3.44513
-3.44486
-3.44561
-3.8943
-3.85174
-3.65044
-3.60395
-3.6915
-3.65073
-3.63229
-3.58509
-3.5675
-3.56051
-3.57612
-3.57046
-3.57123
-3.56455
-3.56408
-3.56742
-3.56753
-3.56629
-3.566
-3.97219
-3.93329
-3.91655
-3.88155
-3.6823
-3.67785
-3.64576
-3.73408
-3.72075
-3.7158
-3.68605
-3.67307
-3.69327
-3.69124
-3.6944
-3.6946
-3.69095
-3.691
-3.69068
-4.13146
-4.08413
-4.01928
-3.99387
-3.99009
-3.96429
-3.93464
-3.76248
-3.74399
-3.73908
-3.82481
-3.82209
-3.80393
-3.7924
-3.79572
-3.81307
-3.81896
-3.82298
-3.82517
-4.26373
-4.22519
-4.1802
-4.14507
-4.09141
-4.06187
-4.04621
-4.06412
-4.04123
-4.02715
-3.88484
-3.87088
-3.97258
-3.95966
-3.95061
-3.93582
-3.92635
-3.92389
-3.92417
-4.39288
-4.35596
-4.31551
-4.28673
-4.25433
-4.2275
-4.20035
-4.15881
-4.13673
-4.12869
-4.13412
-4.08846
-3.99637
-3.97825
-3.99995
-4.1186
-4.10993
-4.10687
-4.10782
-4.52743
-4.49288
-4.45581
-4.42606
-4.39504
-4.36928
-4.34968
-4.32928
-4.30823
-4.28835
-4.25581
-4.24526
-4.27501
-4.25222
-4.17678
-4.13926
-4.10504
-4.09244
-4.08974
-4.65414
-4.62353
-4.59196
-4.56544
-4.53872
-4.51475
-4.49369
-4.47233
-4.45405
-4.44104
-4.42433
-4.40847
-4.38337
-4.36915
-4.36606
-4.42214
-4.44021
-4.44289
-4.44462
-4.78107
-4.75358
-4.72668
-4.7031
-4.68023
-4.65943
-4.64095
-4.62225
-4.60547
-4.59084
-4.57513
-4.5667
-4.55973
-4.55019
-4.53782
-4.52563
-4.51587
-4.5098
-4.50737
-4.90622
-4.88356
-4.86071
-4.84059
-4.82102
-4.80307
-4.78684
-4.77114
-4.75712
-4.74475
-4.73169
-4.72246
-4.71349
-4.70716
-4.70374
-4.70552
-4.70634
-4.70488
-4.70361
-5.02342
-5.01173
-4.99194
-4.97566
-4.95934
-4.94424
-4.93033
-4.91705
-4.90507
-4.89454
-4.88447
-4.87686
-4.86959
-4.86437
-4.86063
-4.85822
-4.85818
-4.85721
-4.85607
-5.1484
-5.14318
-5.12779
-5.11527
-5.10242
-5.09035
-5.07904
-5.06825
-5.05837
-5.04948
-5.04121
-5.03459
-5.02877
-5.02439
-5.02157
-5.01928
-5.01911
-5.01833
-5.01733
-5.27212
-5.26688
-5.25359
-5.24255
-5.23161
-5.22148
-5.21219
-5.20351
-5.19561
-5.1885
-5.18203
-5.17664
-5.17191
-5.16808
-5.1652
-5.16295
-5.16205
-5.16188
-5.16185
-5.4093
-5.40783
-5.40155
-5.39549
-5.38921
-5.38305
-5.37737
-5.37208
-5.36724
-5.36286
-5.35889
-5.35553
-5.3526
-5.35014
-5.34806
-5.34622
-5.34515
-5.34508
-5.34529
-5.53127
-5.51903
-5.51003
-5.50082
-5.49283
-5.48538
-5.4787
-5.47271
-5.46737
-5.46262
-5.4584
-5.45476
-5.4516
-5.44895
-5.44678
-5.44503
-5.44393
-5.44352
-5.44352
-5.67661
-5.68031
-5.68526
-5.6897
-5.69398
-5.69774
-5.70109
-5.7041
-5.70682
-5.70926
-5.71143
-5.71336
-5.71506
-5.71655
-5.71781
-5.71886
-5.71969
-5.72036
-5.72034
)
;

boundaryField
{
    leftWall
    {
        type            calculated;
        value           nonuniform List<scalar> 
50
(
2260.51
2200.53
2139.51
2077.36
2014.3
1950.44
1885.07
1821.91
1717.72
1590.73
1435.01
1296.92
1161.75
1041.32
924.812
822.299
721.332
636.379
568.553
517.434
418.032
237.99
76.5691
15.4107
-3.0786
-3.76527
-5.16687
-4.74885
-4.74542
-4.61327
-4.44625
-4.65482
-4.04707
-4.52349
-4.41565
-5.11171
-4.84042
-4.93647
-4.91568
-4.98888
-5.01533
-5.07802
-5.13781
-5.21093
-5.2862
-5.36833
-5.45711
-5.51833
-5.66757
-5.62564
)
;
    }
    rightWall
    {
        type            calculated;
        value           nonuniform List<scalar> 
50
(
0.268062
0.208806
0.148862
0.0886284
0.0279825
-0.0330194
-0.0942995
-0.155717
-0.251907
-0.383208
-0.514267
-0.644594
-0.773852
-0.901862
-1.02851
-1.15377
-1.27768
-1.40033
-1.5218
-1.64235
-1.76185
-1.88113
-1.99914
-2.1181
-2.23524
-2.35553
-2.47473
-2.59541
-2.71615
-2.83748
-2.95914
-3.08088
-3.20383
-3.32602
-3.44561
-3.566
-3.69068
-3.82517
-3.92417
-4.10782
-4.08974
-4.44462
-4.50737
-4.70361
-4.85607
-5.01733
-5.16185
-5.34529
-5.44352
-5.72034
)
;
    }
    lowerWall
    {
        type            calculated;
        value           nonuniform List<scalar> 
62
(
2289.94
2267.19
2241.03
2167.6
2116.09
1994.04
1889.86
1753.25
1561.3
1500.91
1134.05
1641.47
1392.7
1232.49
1013.83
768.65
657.149
465.403
300.782
61.2481
10.2752
92.3339
78.4108
77.8295
45.4712
22.3254
12.9504
8.17138
4.98695
2.76342
1.31044
-1.41739
-1.73082
-0.614014
-0.382462
0.607386
0.536658
0.464692
0.392056
0.298438
0.217604
0.127365
0.0271348
0.636815
0.655222
0.635914
0.626316
0.580121
0.552929
0.520792
0.496558
0.469757
0.442669
0.422523
0.399296
0.374299
0.378997
0.315106
0.326579
0.30667
0.302414
0.297492
)
;
    }
    atmosphere
    {
        type            calculated;
        value           nonuniform List<scalar> 
46
(
-5.74862
-5.74867
-5.74817
-5.74745
-5.74653
-5.74544
-5.74421
-5.7429
-5.74154
-5.74017
-5.73887
-5.73765
-5.7368
-5.73642
-5.73737
-5.7359
-5.7344
-5.73274
-5.73132
-5.73019
-5.72946
-5.7291
-5.72904
-5.72904
-5.72904
-5.72904
-5.72904
-5.72904
-5.72904
-5.72904
-5.72904
-5.72904
-5.72904
-5.72904
-5.72904
-5.72904
-5.72904
-5.72904
-5.72904
-5.72904
-5.72904
-5.72904
-5.72904
-5.72904
-5.72904
-5.72904
)
;
    }
    defaultFaces
    {
        type            empty;
    }
}


// ************************************************************************* //
