/*--------------------------------*- C++ -*----------------------------------*\
| =========                 |                                                 |
| \\      /  F ield         | foam-extend: Open Source CFD                    |
|  \\    /   O peration     | Version:     4.1                                |
|   \\  /    A nd           | Web:         http://www.foam-extend.org         |
|    \\/     M anipulation  |                                                 |
\*---------------------------------------------------------------------------*/
FoamFile
{
    version     2.0;
    format      ascii;
    class       volScalarField;
    location    "0.1";
    object      pd;
}
// * * * * * * * * * * * * * * * * * * * * * * * * * * * * * * * * * * * * * //

dimensions      [1 -1 -2 0 0 0 0];

internalField   nonuniform List<scalar> 
2268
(
2289.94
2267.19
2241.03
2167.6
2116.09
1994.04
1889.86
1753.25
1561.3
1500.91
1134.05
1641.47
1392.7
1232.49
1013.83
768.65
657.149
465.403
300.782
61.2481
10.2752
92.3339
78.4108
2288.82
2265.83
2240.11
2165.88
2115.47
1991.61
1888.31
1751.29
1551.19
1505.22
1152.84
1590.42
1381.5
1218.97
1001.87
755.682
610.011
498.888
316.15
55.7877
42.7704
66.1845
46.283
2286.66
2263.19
2238.32
2162.51
2114.35
1987
1884.22
1737.22
1534.09
1448.03
1335.56
1491.85
1349.42
1190.54
1000.95
729.334
605.865
448.352
303.678
77.0796
59.5352
22.4452
22.6783
2283.37
2259.2
2235.5
2157.55
2113.16
1978.02
1884.58
1713.41
1502.62
1601.13
1370.66
1449.04
1329.23
1169.14
1027.36
868.865
540.156
334.517
199.526
79.2377
25.5198
9.12136
13.1708
2279.16
2254.12
2231.73
2151.66
2110.1
1972.99
1870.19
1722.64
1465.42
1588.85
1415.99
1427.46
1302.71
1146.84
984.626
796.489
659.239
175.162
99.8958
33.7152
5.73973
5.97815
8.43642
2274.16
2248.09
2227.13
2143.94
2108.2
1959.72
1848.08
1625.15
1608.77
1564.44
1434.32
1398.01
1269.9
1119.65
951.674
806.412
519.006
137.256
43.5726
5.09509
2.95267
4.82087
5.31067
2267.65
2240.51
2220.82
2136.5
2108.17
1931.82
1875.57
1598.06
1639.02
1552.57
1438.75
1377.86
1245.28
1092.05
924.666
729.075
403.951
96.5332
11.9478
-0.607787
2.20475
3.86146
3.146
2263.35
2234.48
2214.19
2122.2
2084.68
1945.21
1783.85
1676.54
1636.36
1551.96
1448.33
1364.41
1229.9
1078.98
896.387
667.671
241.517
49.0532
2.82275
0.280959
1.41812
2.78664
1.75188
0.636815
0.655222
0.635914
0.626316
0.580121
0.552929
0.520792
0.496558
0.469757
0.442669
0.422523
0.399296
0.374299
0.378997
0.315106
0.326579
0.30667
0.302414
0.297492
0.624947
0.63739
0.63618
0.626158
0.580597
0.553501
0.520024
0.495463
0.468878
0.441691
0.421637
0.395159
0.372937
0.361501
0.319977
0.325688
0.306335
0.301943
0.297094
0.611839
0.667141
0.635652
0.630264
0.580527
0.555414
0.519717
0.495656
0.468058
0.442231
0.422405
0.393473
0.383307
0.351743
0.32054
0.322944
0.305136
0.300652
0.296008
0.598062
0.644857
0.639996
0.631834
0.582878
0.557635
0.519757
0.495736
0.467199
0.439667
0.424277
0.38691
0.379214
0.349547
0.31938
0.3202
0.303554
0.299039
0.294634
0.563302
0.641713
0.645178
0.634299
0.582086
0.55962
0.519928
0.497687
0.464878
0.44677
0.416915
0.401323
0.352087
0.347073
0.318381
0.31694
0.301543
0.296994
0.292847
0.541327
0.631696
0.646498
0.642902
0.574538
0.565869
0.521161
0.496767
0.462528
0.438148
0.433397
0.369216
0.362229
0.343496
0.315764
0.313252
0.299097
0.294572
0.290704
0.509946
0.595662
0.658503
0.63587
0.5887
0.568602
0.523847
0.50252
0.462236
0.461014
0.391943
0.381444
0.349225
0.338358
0.312308
0.309284
0.296339
0.291876
0.288282
0.468575
0.574209
0.647185
0.645572
0.599727
0.576392
0.526606
0.497684
0.459181
0.41474
0.404122
0.370509
0.357326
0.33535
0.309163
0.305482
0.293483
0.28907
0.285723
2251.19
2222.45
2203.14
2137.56
2080.89
1796.57
1897.58
1685.53
1649.88
1563.84
1447.14
1344.13
1180.77
1041.67
886.235
483.607
81.4191
10.9759
0.828925
0.506572
1.30916
2.24423
2.66738
2249.39
2207.64
2190.39
1997.48
2093.13
1912.44
1856.15
1752.5
1660.26
1570.05
1453.95
1307.33
1155.29
1060.58
464.536
144.029
13.5404
1.79599
1.24255
1.09213
1.90528
2.62445
1.46376
2218.86
2192.73
2172
2067.52
2045.09
1924.11
1885.65
1775.63
1670.84
1577.6
1414.47
1219.17
1134.53
649.05
440.617
54.0745
3.97709
1.1816
1.09238
1.23381
2.1822
1.32045
1.78844
2205.97
2180.48
2156.89
2074.61
2051.99
1960.72
1890.01
1799.76
1692.29
1587.3
1385.78
1189.15
595.436
926.9
420.87
35.0506
1.56406
0.861804
1.21103
1.0743
0.922684
1.184
1.45719
2196
2179.01
2153.75
2098.72
2055.67
1979.53
1917.18
1828.65
1732.91
1632.82
1474.27
1318.18
1045.6
871.906
190.025
8.93009
0.454759
0.460294
0.704183
0.807286
0.867897
1.02921
1.03211
2200.76
2184.71
2157.83
2111.75
2066.32
2005.34
1939.25
1859.68
1779.01
1685.57
1543.45
1415.4
1190.59
717.023
88.8447
2.17684
0.0188044
0.427847
0.578941
1.35028
0.843978
0.945671
0.953012
2209.45
2195.95
2170.43
2131.49
2085.43
2032.51
1968.87
1906.56
1856.16
1775.48
1662.32
1533.96
1267.84
479.509
31.6469
-0.100421
0.0628931
0.34109
0.875046
0.41618
0.595104
0.622932
0.68539
2232.13
2218.84
2192.28
2155.07
2106.1
2057.39
1988.79
1943.51
1889.53
1834.17
1748.02
1631.38
1145.04
230.221
7.95676
-0.260532
0.359161
0.531973
0.0776631
0.328165
0.45909
0.52277
0.613869
2256.35
2243.69
2215.23
2176.49
2123.46
2076.67
2013.13
1967.92
1905.16
1882.16
1838.47
1730.75
801.642
81.1669
0.355366
-0.384396
-0.411712
-0.26278
-0.0550803
0.134409
0.18864
0.280864
0.364445
2296.6
2282.83
2250.57
2205.99
2148.03
2102.48
2030.98
1974.41
2024.87
2105.99
2089.73
1838.53
582.525
28.3498
-0.750688
-0.0675791
-0.343142
0.054903
-0.100068
0.0139468
0.0817828
0.15802
0.282393
2353.97
2340.4
2307.68
2252.68
2177.99
2100.96
1942.73
1769.07
1225.32
1266.45
1224
1701.03
568.22
25.3525
-0.0618629
-0.349667
-0.400345
-0.243577
-0.253438
-0.134261
-0.0669393
0.0187316
0.107601
2428.04
2420.02
2378.34
2308.45
2237.24
2161.14
2064.75
1966.6
1830.95
1849.38
1887.3
1825.31
636.502
22.2037
-1.29117
-0.728234
-0.680376
-0.460016
-0.404214
-0.302592
-0.213434
-0.139968
-0.101645
2453.78
2437.17
2392.97
2336.31
2279.65
2224.08
2202.07
2129.97
2004.35
1978.45
2044.97
2002.4
467.163
11.7591
-1.60029
-1.38844
-0.811472
-0.690697
-0.588745
-0.487073
-0.425049
-0.309974
-0.368124
2387.61
2380.95
2365.04
2329.05
2267.95
2240.37
2233.64
2171.13
1956.17
2008.44
1988.47
1513.63
471.728
76.5112
-0.437978
-0.925545
-0.853495
-0.758323
-0.738109
-0.665368
-0.516857
-0.63821
-0.0767542
2036.26
2021.13
1964.93
1888.18
1793.26
1718.88
1727.56
1727.9
2133.62
1911.57
2094.67
2078.59
1089.4
234.296
11.5818
-1.06646
-0.770877
-0.873556
-0.815698
-0.67789
-0.866002
-0.395538
-0.117057
678.774
653.084
560.568
457.534
378.159
305.578
315.554
332.482
545.838
900.482
1250.94
1218.55
713.524
154.107
12.379
-1.5423
-1.3562
-1.23051
-1.33853
-1.0661
-0.655494
-0.452297
-0.205805
25.0744
23.4509
18.3994
13.5702
10.5062
8.03285
8.85186
10.1992
18.6519
39.4355
95.4901
81.2695
34.4537
19.3659
22.139
-0.221329
-1.57975
-1.59083
-0.71047
-0.606764
-0.516094
-0.394005
-0.221852
-0.319102
-0.353388
-0.493221
-0.459545
-0.414045
-0.457191
-0.540031
-0.517161
-0.308766
0.202971
-0.490882
-1.68749
-2.64452
-1.07683
12.5132
-2.06593
-1.91421
-1.11579
-1.01052
-0.733629
-0.536658
-0.353693
-0.220816
-2.35857
-2.09862
-1.45887
-1.95956
-2.18706
-2.09075
-1.68493
-1.68096
-1.71948
-1.5957
-1.53943
-2.04124
-2.59685
-0.670451
3.56661
-2.44935
-1.49234
-0.845126
-0.870586
-0.600395
-0.472876
-0.317274
-0.20889
-1.83669
-1.67744
-2.16547
-1.84136
-1.60765
-1.5765
-1.57523
-2.33579
-1.29268
-2.10627
-1.57033
-2.49655
-1.40858
-0.72486
-0.734719
-2.53472
-1.40278
-1.15472
-0.722327
-0.539152
-0.401844
-0.262827
-0.14536
-1.70806
-1.66848
-1.54936
-1.47719
-1.47042
-1.41172
-1.05264
-1.56623
-1.30692
-1.17859
-1.31591
-1.70537
-0.941977
-1.35587
-1.01061
-2.09205
-1.1435
-0.886909
-0.621656
-0.484398
-0.359924
-0.243274
-0.146138
-1.45072
-1.4178
-1.43251
-1.51865
-1.2689
-1.3101
-1.21031
-1.01288
-1.12946
-1.33614
-1.2362
-1.21646
-0.980184
-1.01522
-0.613019
-1.69341
-0.926066
-0.882161
-0.563141
-0.468884
-0.322614
-0.221496
-0.113223
-1.1585
-1.14001
-1.23196
-1.10309
-0.914941
-0.938823
-0.674824
-0.983962
-1.01854
-1.172
-0.557382
-0.733363
-0.660756
-0.814764
-0.478225
-1.36185
-0.992079
-0.689603
-0.52906
-0.405387
-0.283556
-0.202023
-0.104903
-1.24188
-1.23976
-1.05602
-0.74882
-0.771035
-0.624976
-0.794034
-0.69549
-0.884757
-0.455457
-0.74475
-0.662778
-0.628112
-0.688496
-0.690238
-0.697897
-1.08796
-0.833034
-0.469007
-0.427366
-0.289048
-0.193527
-0.0748734
-0.508931
-0.558276
-0.50819
-0.803114
-0.791626
-0.719051
-0.658956
-1.24528
-0.974001
-0.785732
-0.684488
-0.640257
-0.569454
-0.621103
-0.572805
-0.573356
-0.855461
-0.560112
-0.606517
-0.322399
-0.186773
-0.234512
-0.0928188
-0.860162
-0.884688
-0.789334
-0.642524
-0.602899
-0.621906
-1.13739
-0.984347
-0.474135
-0.590305
-0.529716
-0.512733
-0.542351
-0.446997
-0.505324
-0.546088
-0.514967
-0.602879
-0.637787
-0.46613
-0.342722
-0.0560944
0.0108999
-0.627122
-0.693386
-0.671229
-1.0843
-1.13144
-1.12431
-0.977655
-0.639714
-0.648588
-0.582668
-0.541488
-0.489417
-0.484
-0.470078
-0.462852
-0.413479
-0.481288
-0.264826
-0.442961
-0.341778
-0.27725
-0.21601
-0.157024
-1.19799
-1.17959
-1.16449
-0.85507
-0.806009
-0.732589
-0.846828
-0.458717
-0.557432
-0.487133
-0.460664
-0.428252
-0.418922
-0.405123
-0.406926
-0.38802
-0.392834
-0.436928
-0.241146
-0.509547
-0.258144
-0.197491
-0.111348
-0.801507
-0.784589
-0.769452
-0.76374
-0.714777
-0.809121
-0.514803
-0.525769
-0.493877
-0.460394
-0.429482
-0.406919
-0.389387
-0.386669
-0.358553
-0.354232
-0.296232
-0.332142
-0.220898
-0.366578
-0.321441
-0.217809
-0.12408
-0.772362
-0.7495
-0.738447
-0.651154
-0.70693
-0.499503
-0.517482
-0.453157
-0.435979
-0.394511
-0.369096
-0.351387
-0.327183
-0.315521
-0.32
-0.307677
-0.284722
-0.259179
-0.230836
-0.158114
-0.192794
-0.154031
-0.10314
-0.626372
-0.618206
-0.596721
-0.629189
-0.489969
-0.499456
-0.444046
-0.424926
-0.388388
-0.366657
-0.339163
-0.337349
-0.287557
-0.369963
-0.300335
-0.283161
-0.254683
-0.218377
-0.201709
-0.2376
-0.105727
-0.258886
-0.0989689
-0.574381
-0.551466
-0.562381
-0.461334
-0.468299
-0.419708
-0.404114
-0.366634
-0.34551
-0.320111
-0.299211
-0.28845
-0.271218
-0.26911
-0.254817
-0.240179
-0.22211
-0.206672
-0.173174
-0.190606
-0.10976
-0.19394
-0.0834385
-0.475639
-0.469139
-0.453659
-0.422838
-0.403522
-0.379985
-0.351971
-0.330694
-0.308306
-0.289946
-0.273359
-0.263429
-0.249369
-0.251076
-0.227669
-0.213943
-0.193194
-0.173267
-0.158297
-0.135439
-0.113122
-0.0746441
-0.166224
-0.413131
-0.402814
-0.393859
-0.366613
-0.35229
-0.327029
-0.309579
-0.288539
-0.270902
-0.254409
-0.239858
-0.228513
-0.215995
-0.208084
-0.194555
-0.181125
-0.163795
-0.155462
-0.127491
-0.116742
-0.114346
-0.0565918
-0.144612
-0.347732
-0.34285
-0.332834
-0.318024
-0.302787
-0.286236
-0.269167
-0.252966
-0.23774
-0.223978
-0.211708
-0.201382
-0.190563
-0.182338
-0.169481
-0.156386
-0.142959
-0.130354
-0.119433
-0.0986714
-0.0956836
-0.0524314
-0.101206
-0.295658
-0.290922
-0.283206
-0.271355
-0.259404
-0.245224
-0.231747
-0.218145
-0.205373
-0.193458
-0.182521
-0.172509
-0.162355
-0.153307
-0.142421
-0.129398
-0.117117
-0.104716
-0.0887049
-0.0748083
-0.0563893
-0.0488163
0.00875569
-0.24573
-0.242664
-0.236802
-0.228495
-0.218702
-0.207909
-0.196768
-0.185699
-0.17508
-0.16498
-0.155572
-0.14647
-0.137302
-0.128709
-0.118631
-0.106692
-0.0971525
-0.0865872
-0.0771811
-0.0672363
-0.0517451
-0.0361645
-0.0291834
-0.202668
-0.200197
-0.195496
-0.188924
-0.181143
-0.172376
-0.163242
-0.153997
-0.144956
-0.136079
-0.127645
-0.119051
-0.110629
-0.10289
-0.094401
-0.0839685
-0.0763812
-0.0640543
-0.0610995
-0.0412402
-0.0400895
-0.00808746
-0.0269048
-0.166247
-0.164466
-0.161015
-0.156184
-0.150256
-0.143591
-0.136519
-0.1293
-0.122164
-0.11493
-0.10785
-0.099774
-0.0908381
-0.0814989
-0.0690604
-0.0573797
-0.0502629
-0.0429644
-0.039323
-0.0352986
-0.028273
-0.014966
-0.0255616
-0.10228
-0.101114
-0.0988339
-0.0957058
-0.09184
-0.0874909
-0.0828598
-0.0781515
-0.0736026
-0.0691457
-0.0654711
-0.0616283
-0.0583357
-0.0566083
-0.0546607
-0.0489907
-0.0442924
-0.0378626
-0.0342656
-0.025612
-0.0256786
-0.0183888
-0.020604
-0.126326
-0.125411
-0.123284
-0.120341
-0.116559
-0.112172
-0.107307
-0.102059
-0.0964592
-0.0901825
-0.0834049
-0.0740239
-0.060829
-0.0407209
-0.00609468
0.00808899
0.011719
0.0131534
0.00927747
0.00671904
0.000973839
0.00148708
-0.00938742
0.0408003
0.0406767
0.0402225
0.0395135
0.0385451
0.037327
0.0358523
0.0340545
0.0318158
0.0291173
0.0251152
0.0183001
0.00602471
-0.0138221
-0.0354789
-0.0374496
-0.0359111
-0.0306808
-0.024773
-0.0200371
-0.0214532
-0.0168229
-0.00964011
-0.946522
-1.25995
-0.143145
0.0884081
0.12405
0.218448
0.605679
0.717111
1.86833
1.78911
1.68832
1.53917
1.67163
1.21178
1.33196
1.42921
1.03818
1.11362
1.23406
1.31591
0.956506
1.01573
1.06689
1.1027
0.57875
0.807084
0.841001
0.898602
0.877713
0.740189
0.7874
0.82828
0.398192
0.495486
0.61587
0.654527
0.351554
0.425374
0.483898
0.519673
0.165979
0.269411
0.321931
0.379923
-0.145807
0.0548871
0.153107
0.236733
-0.0692246
0.0446551
0.0969325
0.174496
-0.0577799
0.00171233
0.0507956
0.119812
-0.160741
-0.047176
-0.00363373
0.0524228
-0.09236
-0.0500409
-0.00994684
0.030858
-0.150117
-0.102599
-0.0612894
-0.012237
-0.148759
-0.103581
-0.0687181
-0.0178367
-0.145278
-0.0822939
-0.143061
-0.0154428
-0.0772671
-0.0226812
0.0235675
0.0410546
-0.0785208
-0.0364762
-0.00276889
0.0358742
-0.0492573
-0.00880542
0.022435
0.053295
-0.0445878
-0.00758242
0.0263259
0.0563416
-0.0226225
0.0106398
0.0332352
0.058951
-0.0409998
0.000478316
0.0415747
0.0763422
0.0567349
0.0914452
0.0543895
0.0731624
-0.0721888
-0.0330292
0.0852504
0.134917
-0.0717947
-0.0521434
-0.0447017
-0.0255648
-0.0763406
-0.0405822
-0.00839378
0.0225071
-0.0677934
-0.0470056
-0.0248036
-0.00442636
-0.0794434
-0.0503152
-0.0300285
-0.00764684
-0.0673769
-0.0431117
-0.0257399
-0.00814071
-0.0686416
-0.0612475
-0.0346533
-0.0199087
-0.0659983
-0.0571075
-0.0314066
-0.0182524
-0.0750754
-0.0549392
-0.0287332
-0.0147206
-0.0562628
-0.0169068
-0.0205633
-0.00522109
0.00811847
-0.0399266
-0.00113245
-0.0061321
0.0206206
-0.0204754
0.00794458
-0.00252723
0.00881938
-0.0172527
0.00812942
-8.85807e-05
4.91401e-05
-0.0155595
0.00322742
-0.00461488
-0.00672545
0.000896249
-0.00785254
0.00662594
-0.00976635
-0.00758921
-0.00769869
-0.00787595
0.196078
0.595274
0.646781
0.721922
0.603616
0.587153
0.537399
0.505909
0.466266
0.445694
0.399639
0.378287
0.312958
0.330575
0.301482
0.299519
0.288837
0.284553
0.28156
1.06142
0.530323
0.693353
0.745107
0.632302
0.613264
0.550089
0.506668
0.462965
0.406553
0.382707
0.317784
0.353969
0.315498
0.299151
0.291413
0.282437
0.278065
0.275454
1.64435
1.02458
0.866551
0.780556
0.682396
0.600864
0.535116
0.48928
0.450832
0.432272
0.408904
0.376266
0.326525
0.312637
0.293147
0.284567
0.276332
0.271935
0.269589
1.4276
1.47997
0.811816
0.805073
0.649932
0.660406
0.563286
0.509418
0.45378
0.340099
0.316897
0.327698
0.313816
0.302545
0.28696
0.278524
0.270964
0.26663
0.264457
1.3524
1.37222
0.822361
0.770562
0.677198
0.520037
0.456692
0.411518
0.374248
0.430386
0.383193
0.345548
0.316527
0.299397
0.283446
0.274099
0.266827
0.262476
0.260393
1.13841
1.0573
1.09737
0.73814
0.668677
0.63445
0.569629
0.52066
0.460939
0.391686
0.346057
0.333328
0.307757
0.293954
0.279845
0.270722
0.263859
0.259586
0.257578
0.988366
0.974502
1.04393
0.645623
0.646741
0.567503
0.494783
0.450067
0.403848
0.387385
0.353202
0.330379
0.30641
0.291342
0.277973
0.268857
0.262254
0.258075
0.256124
0.848474
0.859086
0.786011
0.789073
0.595374
0.570169
0.503294
0.462069
0.416872
0.383947
0.347281
0.326052
0.304448
0.289662
0.277191
0.268326
0.261991
0.257947
0.256058
0.702712
0.742155
0.827154
0.552946
0.568463
0.530536
0.47378
0.438425
0.399015
0.371869
0.342488
0.322158
0.30296
0.289037
0.277428
0.269034
0.263014
0.259156
0.257345
0.573899
0.677893
0.553601
0.567447
0.536631
0.493258
0.450606
0.419915
0.387301
0.362992
0.338024
0.319212
0.302228
0.289501
0.278667
0.270898
0.265235
0.261609
0.259892
0.457207
0.474105
0.524762
0.512152
0.477307
0.455739
0.424254
0.401254
0.374851
0.354213
0.333308
0.316772
0.301772
0.290695
0.280686
0.273779
0.268542
0.265212
0.263611
0.344287
0.420272
0.456185
0.44325
0.432048
0.418715
0.396449
0.381641
0.361454
0.345613
0.329074
0.315393
0.302394
0.293377
0.283624
0.277649
0.272765
0.269743
0.268257
0.256963
0.328677
0.369579
0.384866
0.387059
0.384957
0.372926
0.364573
0.349688
0.338121
0.325006
0.314149
0.302409
0.295406
0.286811
0.282272
0.277916
0.275304
0.273955
0.1869
0.25737
0.311008
0.335653
0.348109
0.355211
0.346892
0.348854
0.338244
0.332044
0.322545
0.315115
0.304787
0.301794
0.291083
0.287862
0.28346
0.281135
0.279862
0.123239
0.201044
0.257779
0.291459
0.314894
0.328586
0.330224
0.335342
0.329896
0.327009
0.319984
0.315427
0.306559
0.303142
0.295181
0.29366
0.290042
0.288175
0.287048
0.097451
0.160196
0.236988
0.259262
0.289155
0.309245
0.305578
0.325615
0.321049
0.324164
0.31963
0.319519
0.309176
0.318868
0.301399
0.300609
0.296092
0.294406
0.293281
0.0555868
0.128575
0.207781
0.220167
0.271394
0.289804
0.309762
0.317124
0.319054
0.321455
0.318992
0.318255
0.313014
0.310767
0.307705
0.306719
0.303449
0.302245
0.30134
0.0658655
0.0946714
0.213036
0.225879
0.263819
0.288181
0.29758
0.312585
0.315586
0.320218
0.320404
0.320602
0.317471
0.31867
0.313086
0.311569
0.308386
0.307095
0.306241
0.0511821
0.146373
0.188257
0.221017
0.255504
0.279729
0.298425
0.312698
0.315623
0.320952
0.321989
0.322021
0.320053
0.319481
0.317194
0.316096
0.314015
0.312932
0.312243
0.0790045
0.128617
0.186336
0.220179
0.253836
0.277986
0.294232
0.309376
0.31805
0.323416
0.325184
0.325129
0.324442
0.323642
0.321458
0.320249
0.318474
0.317396
0.316756
0.0831914
0.139212
0.186233
0.221674
0.252339
0.277061
0.2949
0.30882
0.317949
0.325399
0.330375
0.328082
0.328683
0.327324
0.325844
0.324629
0.322998
0.321853
0.32121
0.091529
0.14311
0.18795
0.224219
0.252723
0.277021
0.295281
0.308983
0.319389
0.326348
0.330969
0.333102
0.334925
0.331079
0.330221
0.329158
0.327174
0.325827
0.325074
0.0993442
0.151836
0.190395
0.226513
0.252498
0.277847
0.296582
0.30933
0.320488
0.328099
0.332645
0.335561
0.336966
0.336312
0.335406
0.334302
0.331198
0.32935
0.328607
0.0964555
0.150045
0.19343
0.231819
0.254046
0.278954
0.297457
0.309524
0.32169
0.329733
0.334264
0.338166
0.33939
0.339705
0.339246
0.338225
0.334674
0.332458
0.332062
0.120532
0.173749
0.190099
0.228585
0.25154
0.28248
0.301863
0.310357
0.322375
0.330568
0.335347
0.34048
0.341622
0.342694
0.342411
0.340617
0.338636
0.335101
0.334311
0.0891567
0.138465
0.203589
0.246047
0.251586
0.277272
0.296488
0.310823
0.325776
0.334461
0.337144
0.342264
0.342678
0.344943
0.345147
0.34314
0.341119
0.339182
0.337308
0.202358
0.269532
0.187253
0.224635
0.26808
0.297759
0.314199
0.310521
0.323094
0.332133
0.337761
0.345565
0.343865
0.346903
0.347168
0.344518
0.343392
0.34367
0.342917
0.0194209
0.0619817
0.263281
0.309772
0.222222
0.262994
0.281426
0.32863
0.346217
0.353205
0.337603
0.343254
0.342492
0.349165
0.349635
0.346303
0.346186
0.347429
0.347719
0.0667255
0.10562
0.122367
0.157362
0.356618
0.361067
0.393156
0.304839
0.318162
0.323114
0.352864
0.365842
0.345647
0.347678
0.344513
0.344313
0.347968
0.347913
0.348238
0.0326457
0.0799825
0.144831
0.170241
0.174019
0.199817
0.229464
0.401626
0.420118
0.425024
0.339303
0.342018
0.360182
0.37171
0.368384
0.351034
0.345151
0.341132
0.338934
0.0255753
0.0641151
0.109099
0.144237
0.197889
0.227434
0.243096
0.225187
0.248074
0.262154
0.404466
0.418425
0.316719
0.329638
0.338693
0.353481
0.362952
0.365417
0.365132
0.021619
0.0585377
0.0989914
0.127764
0.160165
0.186995
0.214152
0.255685
0.277767
0.285803
0.280382
0.326041
0.418125
0.436244
0.414544
0.295901
0.304571
0.30763
0.306674
0.012262
0.0468123
0.083878
0.113635
0.144655
0.170417
0.190014
0.210408
0.231459
0.251345
0.283884
0.294431
0.264682
0.287472
0.362909
0.400436
0.434652
0.447247
0.449957
0.0107432
0.0413596
0.0729256
0.0994422
0.126164
0.150137
0.171199
0.192553
0.210839
0.223851
0.24056
0.256419
0.281512
0.295741
0.298827
0.242745
0.224677
0.222001
0.220263
0.00901042
0.0365003
0.0634051
0.0869841
0.109853
0.130647
0.14913
0.167827
0.184614
0.199237
0.214947
0.223384
0.230355
0.239887
0.252263
0.264453
0.274208
0.280281
0.282706
0.00905187
0.0317193
0.0545658
0.0746815
0.0942595
0.112202
0.128437
0.144132
0.158158
0.170524
0.183585
0.192818
0.201786
0.208118
0.211533
0.209751
0.20894
0.210394
0.211668
0.0170464
0.0287381
0.0485343
0.0648123
0.0811335
0.0962273
0.110142
0.123422
0.135402
0.145926
0.156
0.163606
0.170879
0.176097
0.179837
0.182249
0.182287
0.183261
0.184398
0.0172637
0.022486
0.0378719
0.0503897
0.063247
0.0753187
0.0866248
0.0974097
0.107294
0.116186
0.124456
0.131074
0.136897
0.141275
0.144098
0.146381
0.146551
0.147339
0.148336
0.0187396
0.0239773
0.0372649
0.0483106
0.0592454
0.0693829
0.078673
0.0873484
0.0952475
0.10236
0.108827
0.114217
0.118945
0.122783
0.125661
0.127905
0.12881
0.128979
0.129005
0.00675734
0.00822777
0.0145006
0.0205655
0.0268394
0.0330048
0.0386834
0.0439767
0.0488163
0.0531982
0.0571601
0.0605225
0.0634581
0.0659119
0.0679982
0.0698351
0.0708992
0.0709695
0.070763
0.00998303
0.0222146
0.0312229
0.040424
0.0484141
0.0558665
0.0625477
0.0685334
0.0738755
0.0786314
0.0828468
0.0864904
0.0896469
0.0922959
0.0944633
0.0962194
0.097318
0.0977277
0.0977327
-0.0101654
-0.0138704
-0.0188147
-0.0232538
-0.0275377
-0.0312935
-0.0346425
-0.0376592
-0.0403793
-0.0428144
-0.0449824
-0.0469168
-0.04862
-0.0501076
-0.0513651
-0.0524125
-0.0532472
-0.0539165
-0.0538946
)
;

boundaryField
{
    leftWall
    {
        type            zeroGradient;
    }
    rightWall
    {
        type            zeroGradient;
    }
    lowerWall
    {
        type            zeroGradient;
    }
    atmosphere
    {
        type            totalPressure;
        rho             rho;
        psi             none;
        gamma           1;
        p0              uniform 0;
        value           nonuniform List<scalar> 
46
(
-0.0195785
-0.0196288
-0.019133
-0.0184129
-0.0174889
-0.016396
-0.0151725
-0.0138584
-0.0124962
-0.0111313
-0.0098344
-0.00861005
-0.00775792
-0.00738076
-0.00833434
-0.00686077
-0.00535957
-0.00370429
-0.00227706
-0.00115033
-0.000418679
-5.58947e-05
0
0
0
0
0
0
0
0
0
0
0
0
0
0
0
0
0
0
0
0
0
0
0
0
)
;
    }
    defaultFaces
    {
        type            empty;
    }
}


// ************************************************************************* //
