/*--------------------------------*- C++ -*----------------------------------*\
| =========                 |                                                 |
| \\      /  F ield         | foam-extend: Open Source CFD                    |
|  \\    /   O peration     | Version:     4.1                                |
|   \\  /    A nd           | Web:         http://www.foam-extend.org         |
|    \\/     M anipulation  |                                                 |
\*---------------------------------------------------------------------------*/
FoamFile
{
    version     2.0;
    format      ascii;
    class       volScalarField;
    location    "0.6";
    object      p;
}
// * * * * * * * * * * * * * * * * * * * * * * * * * * * * * * * * * * * * * //

dimensions      [1 -1 -2 0 0 0 0];

internalField   nonuniform List<scalar> 
2268
(
454.126
459.471
465.317
481.081
500.891
527.583
567.705
601.633
641.726
666.216
696.908
706.758
724.023
736.8
749.999
761.887
773.408
783.109
792.017
801.184
808.125
814.832
817.359
394.709
400.026
405.725
421.462
441.104
468.08
508.561
543.356
584.122
608.085
636.999
647.704
664.353
677.395
691.123
703.212
715.443
724.945
733.306
742.452
749.55
756.326
758.9
334.731
340.001
345.277
361.221
380.064
407.821
448.101
484.628
524.404
551.311
575.288
591.013
607.537
620.574
634.062
644.6
657.194
666.324
674.571
684.132
691.232
697.887
700.987
274.281
279.516
284.153
300.216
318.425
347.018
388.758
428.052
469.065
490.941
515.096
532.924
547.439
560.999
574.736
586.219
598.528
608.331
618.658
626.076
632.835
640.407
642.942
213.2
218.452
221.966
238.642
254.893
285.003
325.52
368.918
408.598
435.58
457.866
474.688
490.007
503.487
516.416
527.879
542.044
551.294
558.77
569.071
576.826
582.844
585.899
151.824
156.904
159.301
175.844
191.512
221.112
267.225
315.699
347.447
375.476
399.075
416.258
431.617
445.692
460.198
469.634
481.564
492.8
503.763
512.802
519.28
527.177
530.866
91.1541
95.9335
97.5849
113.17
126.297
156.509
197.465
255.973
289.717
318.148
342.65
360.59
375.602
388.186
401.5
408.398
428.52
436.337
449.515
456.747
465.723
469.775
471.74
41.1501
44.6088
45.3025
56.9754
66.599
92.1602
146.972
190.365
234.033
260.775
285.555
302.972
316.687
328.997
346.055
348.259
377.049
374.949
394.431
397.03
410.562
416.512
425.641
2183.56
915.02
209.347
192.292
561.418
1059.49
1278.52
1231.99
1130.38
922.815
836.384
972.498
1007.9
1080.17
991.268
1100.32
1398
1487.88
1449.38
1791.71
585.87
79.3001
61.5726
427.358
1039.64
1267.09
1200.15
1078.33
891.663
733.057
929.866
988.986
827.398
955.012
1047.22
1296.06
1446.98
1388.33
1047.8
288.056
-35.9436
-22.6756
357.255
971.69
1225.02
1141.09
1051.08
827.948
580.394
869.659
842.063
688.348
878.979
939.495
1255.97
1344.06
1329.63
716.511
11.2246
-123.783
-1.77871
311.612
834.158
1085.91
1085.33
921.303
760.704
651.677
748.276
745.006
678.114
775.009
930.101
1165.61
1263.83
1288.92
489.292
-67.8079
-107.298
-8.84825
273.194
721.889
924.991
1034.46
865.433
738.136
651.264
740.429
750.491
732.403
769.321
781.123
1018.21
1198.57
1190.35
335.643
-71.169
-73.8972
-40.5056
217.339
620.134
810.633
896.711
783.628
706.502
638.623
732.721
749.428
767.19
637.295
594.511
857.242
1062.96
1110.16
185.773
-73.8761
-54.8292
-27.6819
115.171
353.089
679.563
772.881
735.419
668.918
684.763
742.923
711.157
686.015
491.422
484.37
628.533
902.619
1033.9
14.391
-65.2771
-25.3374
-8.49737
136.484
346.341
570.275
645.874
578.303
615.086
537.236
603.769
668.888
628.033
416.885
374.251
484.497
739.048
953.272
12.398
13.5472
13.8055
17.5501
20.5612
32.3637
60.657
103.325
144.644
181.563
201.326
217.928
231.795
239.442
258.673
245.816
293.209
288.896
315.095
315.116
327.114
321.573
316.05
4.23749
4.26945
4.25716
4.44793
4.68082
6.4541
12.4412
28.2668
53.1035
75.6361
95.3355
106.601
115.705
125.601
125.153
139.678
165.434
163.25
187.817
199.006
218.582
210.7
250.584
3.94696
3.98307
3.94895
4.03163
4.06707
3.91841
4.17372
10.6881
14.6699
23.535
30.0734
33.5092
35.5535
36.775
39.1571
46.8554
60.7702
72.5331
82.393
96.2843
109.865
131.746
160.482
3.78159
3.81847
3.7466
3.86301
3.80002
3.76536
3.79186
3.99504
5.51659
4.38027
5.91416
5.74529
6.51852
6.36264
5.7679
7.73195
9.91833
17.0732
18.3838
27.0875
37.4377
52.5305
79.2782
3.61647
3.6264
3.6116
3.68244
3.62032
3.61726
3.43336
3.38027
3.35674
3.35694
3.71321
3.77907
3.6842
4.25475
4.22123
3.74851
5.37843
5.70122
5.87308
6.67663
4.55376
12.3665
16.4841
3.41688
3.41657
3.41525
3.40587
3.39695
3.41772
3.38946
3.30056
3.37373
3.47528
3.54814
3.6756
3.78501
3.91527
3.79979
4.20138
4.35835
4.76684
4.4749
4.94176
5.16023
5.82203
5.92953
3.21339
3.1885
3.22272
3.23374
3.24421
3.23772
3.21125
3.2113
3.23734
3.36303
3.42281
3.49729
3.62205
3.60492
3.96905
4.04491
4.26116
4.50179
4.57056
4.75571
5.03797
5.48226
5.39629
3.01943
3.03021
3.03026
3.03908
3.04006
3.06102
3.06192
3.0592
3.1459
3.26629
3.35198
3.30807
3.57275
3.60249
3.7908
3.87906
4.09709
4.26787
4.45736
4.60986
4.88767
5.24035
5.39923
2.81591
2.81865
2.82626
2.83983
2.85321
2.88051
2.89
2.88723
2.98934
3.04877
3.14352
3.20706
3.22849
3.39807
3.67686
3.77551
3.84186
4.10295
4.40415
4.1594
4.50336
5.25997
5.39492
2.61436
2.61784
2.62748
2.64142
2.65267
2.66646
2.71617
2.72468
2.77191
2.8656
2.99639
3.01368
3.21562
3.2062
3.35877
3.62513
3.5565
3.99108
4.08758
4.26456
4.49649
4.89704
5.20896
2.41027
2.41004
2.43579
2.47163
2.45787
2.48305
2.50857
2.57013
2.59736
2.64455
2.67228
2.85318
2.91851
3.06015
3.08955
3.38219
3.41437
3.51632
3.70249
3.95043
4.44066
4.61081
4.95673
2.20254
2.20289
2.21641
2.22955
2.24657
2.27058
2.30242
2.30494
2.42386
2.48723
2.50105
2.59815
2.76977
2.82193
2.98229
3.10248
3.24317
3.43818
3.51322
3.72351
3.76604
4.23901
4.68046
1.9925
1.9969
2.00992
2.01434
2.0433
2.06326
2.09949
2.14039
2.21808
2.26226
2.33754
2.43521
2.38864
2.65091
2.64879
2.90326
2.96581
3.01329
3.07813
3.48206
3.50723
3.98998
4.28625
1.77486
1.7791
1.78889
1.79703
1.82284
1.83583
1.85941
1.8674
1.84023
1.90168
2.08041
2.12956
2.21118
2.27432
2.25677
2.37262
2.58544
2.7335
2.95128
3.00885
3.18086
3.53148
3.91596
1.54967
1.54592
1.58057
1.50818
1.65057
1.63048
1.62252
1.69888
1.72856
1.72457
1.74669
1.82821
1.99071
1.97458
2.03069
2.26973
2.30505
2.42735
2.47433
2.73131
2.9408
2.88037
3.20435
1.3222
1.33596
1.37732
1.35727
1.27991
1.36146
1.46538
1.44013
1.47248
1.51056
1.59657
1.63599
1.69689
1.74481
1.81589
1.88307
1.9188
2.11919
1.98926
2.28691
2.35488
2.28911
2.44123
1.07527
1.07615
1.07827
1.11206
1.20944
1.14379
1.06983
1.13357
1.20595
1.19836
1.33025
1.15054
1.26091
1.31215
1.4032
1.34813
1.45229
1.40075
1.66234
1.47805
1.75348
1.91048
2.00016
0.824123
0.825531
0.785032
0.910906
0.86105
0.897525
1.00822
0.929401
0.929674
0.929318
0.956331
1.03282
1.07019
1.0295
0.922399
1.07081
1.03684
1.065
1.08672
1.03801
1.04147
1.2993
1.36797
0.57644
0.557479
0.584024
0.477421
0.49414
0.684238
0.590245
0.645064
0.647766
0.638365
0.561101
0.831265
0.585507
0.768855
0.825348
0.916152
0.908089
0.931874
0.87116
0.886864
0.617785
0.196537
0.259257
0.367564
0.385598
0.381483
0.39864
0.390461
0.35184
0.291707
0.376349
0.424692
0.471448
0.480889
0.453912
0.484057
0.53659
0.456652
0.447932
0.466252
0.510274
0.387339
0.443745
0.0249531
-0.358655
-0.450101
0.146022
0.14876
0.137177
0.145338
0.136765
0.16353
0.187655
0.179596
0.178848
0.197191
0.194957
0.160302
0.223066
0.264313
0.21626
0.150189
0.152366
-0.0180644
-0.0378806
-0.00966129
-0.0825813
-0.828907
-1.34778
-0.0806891
-0.0884831
-0.0706091
-0.0811594
-0.0830538
-0.0952633
-0.0853234
-0.0669985
-0.0766961
-0.0875735
-0.10017
-0.130801
-0.111593
-0.386517
-0.0865157
-0.154899
-0.228797
-0.337961
-0.445605
-0.43426
-0.600464
-1.28646
-2.78954
-0.314095
-0.321252
-0.316073
-0.328604
-0.325386
-0.409638
-0.330804
-0.317586
-0.326287
-0.344224
-0.340356
-0.405156
-0.377095
-0.413768
-0.654502
-0.549692
-0.586574
-0.664884
-0.899391
-1.23075
-1.7799
-2.58389
-3.12661
-0.557988
-0.576468
-0.567753
-0.563513
-0.544205
-0.528041
-0.546997
-0.484605
-0.588071
-0.605639
-0.612207
-0.776897
-0.636227
-0.672748
-0.696731
-0.772206
-0.906452
-1.01121
-1.22014
-1.27866
-1.80348
-2.31769
-3.31106
-0.794348
-0.797902
-0.807949
-0.801881
-0.795638
-0.825952
-0.745986
-0.870649
-0.875408
-0.886773
-0.83727
-0.85839
-0.903264
-0.946036
-1.03219
-1.07649
-1.21569
-1.39749
-1.73784
-2.15592
-2.60312
-2.86911
-3.69321
-0.958992
-1.07032
-1.04965
-1.03872
-0.973659
-1.03264
-1.15809
-1.11981
-1.10217
-1.15469
-1.0274
-1.1435
-1.10392
-1.25802
-1.27596
-1.28513
-1.565
-1.67356
-2.01434
-2.65581
-3.04556
-3.17166
-4.09213
-1.39284
-1.28374
-1.32848
-1.26716
-1.38091
-1.43947
-1.26492
-1.48468
-1.36103
-1.45943
-1.52696
-1.42712
-1.69981
-1.56701
-1.60661
-1.8097
-1.90451
-2.27173
-2.66954
-2.91183
-2.94991
-3.48688
-4.64389
-1.72286
-1.53772
-1.61023
-1.62399
-1.68801
-1.50829
-1.63543
-1.60988
-1.61087
-1.72108
-1.76266
-1.77782
-1.84506
-1.83438
-2.26945
-2.21114
-2.40118
-2.42221
-2.79645
-2.81463
-3.23915
-3.8481
-4.2229
-1.80328
-1.87581
-1.83838
-1.84967
-1.82543
-1.88789
-1.88384
-1.89742
-1.86495
-1.99057
-2.12761
-2.05994
-2.13063
-2.32822
-2.30595
-2.48444
-2.72159
-2.76058
-2.94475
-3.14834
-3.6863
-3.67174
-4.11194
-2.1161
-2.12244
-2.10159
-2.12771
-2.06412
-2.10933
-2.12251
-2.10984
-2.25676
-2.22841
-2.28266
-2.44939
-2.48407
-2.44888
-2.67917
-2.73847
-2.62378
-3.03499
-3.10975
-3.27026
-3.5084
-3.56465
-4.21744
-2.36967
-2.39967
-2.29902
-2.41546
-2.43611
-2.44438
-2.47385
-2.51589
-2.52652
-2.55469
-2.59129
-2.55149
-2.63573
-2.7027
-2.73507
-2.78874
-3.00382
-3.4556
-3.29138
-3.354
-3.86186
-4.28277
-4.67602
-2.66884
-2.69012
-2.6926
-2.70606
-2.71515
-2.71537
-2.74072
-2.75155
-2.79448
-2.79773
-2.91586
-2.75504
-2.93841
-3.0164
-3.00544
-3.13425
-3.375
-3.54674
-3.60444
-3.67873
-3.89949
-4.47194
-4.70773
-2.92449
-2.95035
-2.9571
-2.97625
-2.98143
-3.00136
-3.01995
-3.0303
-3.0574
-3.05521
-3.11743
-3.13354
-3.15389
-3.12141
-3.19035
-3.34257
-3.50748
-3.66956
-3.71102
-3.89186
-4.18564
-4.45519
-4.54488
-3.22443
-3.24633
-3.24999
-3.26562
-3.2758
-3.28623
-3.3017
-3.30873
-3.33242
-3.3324
-3.38562
-3.39209
-3.43205
-3.45408
-3.54426
-3.51854
-3.7149
-3.84201
-4.33179
-3.98717
-4.34099
-4.4957
-4.81194
-3.41962
-3.5089
-3.52158
-3.54672
-3.5578
-3.56761
-3.5781
-3.57486
-3.59148
-3.53556
-3.65416
-3.65401
-3.69314
-3.70251
-3.72227
-3.76383
-3.89748
-4.04715
-4.22442
-4.27524
-4.32617
-4.6728
-5.00934
-3.85013
-3.83775
-3.83643
-3.84302
-3.84912
-3.85653
-3.86565
-3.87076
-3.88503
-3.90348
-3.91846
-3.94321
-3.95911
-3.98452
-4.00133
-3.99314
-3.86464
-4.31749
-4.47188
-5.09473
-4.57594
-5.11196
-5.3009
-4.12162
-4.12597
-4.13043
-4.13739
-4.145
-4.1508
-4.15797
-4.16007
-4.16117
-4.16304
-4.12707
-4.25056
-4.26508
-4.27347
-4.3311
-4.30089
-4.29142
-4.56335
-4.93591
-5.05896
-4.84026
-5.86236
-6.12972
-4.41757
-4.42015
-4.4232
-4.42795
-4.43385
-4.43773
-4.44514
-4.44581
-4.45298
-4.45209
-4.46635
-4.488
-4.54368
-4.56252
-4.55451
-4.56806
-4.59088
-4.80107
-4.94442
-5.49802
-5.73713
-6.07724
-6.93151
-4.72489
-4.72461
-4.72729
-4.73037
-4.73567
-4.73924
-4.74552
-4.74564
-4.74652
-4.74505
-4.74262
-4.71032
-4.80524
-4.84799
-4.89292
-4.96362
-5.06449
-5.22487
-5.50956
-5.85276
-6.41928
-7.18466
-6.7903
-5.00296
-5.00501
-5.00416
-5.0043
-5.01145
-5.01837
-5.02949
-5.03292
-5.04801
-5.03662
-5.04624
-5.05292
-5.05602
-5.11997
-5.18107
-5.2635
-5.40172
-5.53302
-5.73329
-5.95479
-6.70866
-7.52023
-6.9189
-5.32412
-5.30407
-5.30935
-5.3118
-5.33252
-5.32709
-5.35846
-5.34473
-5.37549
-5.34578
-5.36695
-5.37934
-5.36651
-5.36928
-5.48657
-5.61853
-5.71569
-5.82521
-5.99805
-6.24974
-6.80129
-7.19456
-7.27847
-5.61449
-5.63853
-5.634
-5.63144
-5.59506
-5.63776
-5.57279
-5.63273
-5.57173
-5.60973
-5.59399
-5.58862
-5.61146
-5.60264
-5.70992
-5.96527
-6.13773
-6.44126
-6.68565
-6.92903
-7.02336
-7.23357
-7.26628
308.336
266.621
208.424
139.279
243.362
236.753
212.482
254.712
121.963
149.278
188.371
166.564
112.473
124.836
144.565
169.545
25.4799
32.5295
39.4645
63.3506
5.92369
6.06709
6.98754
8.9278
5.21318
5.58828
5.61821
5.67512
5.54623
5.73292
5.95803
6.12051
5.68994
5.65835
5.31775
5.66151
5.46139
5.58086
5.67456
5.86739
5.09801
5.22238
5.51948
5.83533
4.74885
4.86309
5.04616
5.33648
4.13648
4.42535
4.75172
5.02841
4.04945
4.17224
4.30191
4.43931
3.41079
3.66731
3.87697
3.92712
2.6241
2.86872
3.2138
3.32205
2.03686
2.22499
2.25793
2.28215
1.56965
1.66725
2.0531
2.40291
0.472076
0.92948
1.60041
1.9305
-0.788606
-0.716054
-1.16261
-1.87889
-2.28907
-3.29634
-4.38787
-6.4608
-3.75818
-4.77089
-6.38962
-8.93089
-4.46936
-5.49639
-6.80633
-10.2287
-4.96877
-6.25031
-7.39071
-8.83239
-5.28823
-6.11157
-7.14679
-8.19698
-5.0364
-5.89746
-6.66132
-6.63555
-5.35635
-5.4906
-5.50171
-5.88663
-4.68142
-4.99112
-5.42819
-5.82316
-4.83778
-5.28743
-5.70802
-5.79883
-5.10588
-5.45447
-5.70072
-5.7758
-4.78956
-5.13923
-5.46549
-5.7256
-5.0082
-5.15489
-5.25963
-5.17709
-5.09812
-5.14151
-5.32267
-5.68693
-5.25354
-5.40915
-5.5646
-5.93106
-5.11605
-5.26155
-5.61212
-5.78603
-5.32404
-5.48537
-5.74432
-5.92747
-5.90387
-6.07169
-6.23496
-6.08323
-6.6418
-6.09456
-5.8497
-5.78077
-6.46678
-6.11507
-6.05787
-5.98883
-6.94572
-6.76145
-6.65984
-6.57439
-7.25752
-7.02289
-6.95757
-6.86829
-7.35391
-7.2894
-7.16392
-7.00669
-52.207
-158.075
-9.54336
-57.2051
55.5628
376.955
350.717
534.433
590.599
447.431
348.527
365.412
479.596
462.876
387.224
417.377
506.78
657.635
837.421
186.476
-52.8886
39.3028
44.2794
66.1144
123.708
152.748
242.521
260.281
265.802
250.614
233.894
236.228
242.982
356.049
454.112
477.22
508.562
647.463
210.403
-44.6888
-20.364
18.7489
46.1964
38.8506
42.2071
70.4081
147.364
189.926
165.988
161.922
131.674
97.9099
285.948
405.602
479.347
428.959
510.915
222.909
100.919
25.3695
20.8165
19.1132
22.4341
31.9119
42.1174
64.6917
9.21055
28.2305
46.8947
28.4324
17.7102
134.848
313.109
440.259
350.196
393.943
121.021
43.0994
13.8906
13.0648
14.7371
17.8731
25.3277
28.1279
23.5322
-59.7324
86.4622
-13.5824
-39.8904
-21.6623
29.6074
202.158
404.381
304.47
276.213
11.8399
11.673
11.1331
11.8072
12.9679
15.5568
17.673
11.9389
23.3752
16.3502
19.3821
-35.5485
-30.4289
-4.75997
9.18585
122.828
320.706
356.493
121.524
6.20939
8.15694
10.229
10.7304
11.3994
13.6082
14.1103
17.7177
9.76437
-1.92274
-6.80483
-9.60532
-14.1702
-1.89963
45.2091
191.074
185.166
79.777
104.772
5.90401
7.47355
9.08913
9.84131
10.0958
10.7324
17.9089
9.45374
6.22686
3.40279
0.874798
-1.15871
1.19501
14.3687
129.208
324.079
156.236
106.468
111.136
6.75135
7.27738
8.07237
8.96837
8.8491
8.95869
17.467
6.86413
5.48198
4.39571
2.78732
1.27191
0.0493607
42.4924
177.372
142.572
103.248
105.921
107.874
6.34265
7.14572
7.78409
8.1151
8.13508
7.66443
7.6675
7.05433
7.95152
3.84083
2.54978
2.81697
-8.50733
43.3925
95.1622
97.0389
95.2014
97.4189
101.538
6.17171
6.81948
7.60486
7.90655
8.01226
7.81219
7.00284
5.91733
4.70562
1.00932
0.577367
-0.286745
12.7175
79.3037
87.0453
89.9289
90.8055
95.7048
98.1381
5.86194
6.40204
7.74
8.07329
7.6324
5.84767
4.09885
-4.40042
0.495331
0.486469
-0.267957
-2.12624
85.8378
83.5339
85.365
85.1415
85.0137
87.5777
104.8
5.38512
6.45774
6.79882
5.18259
3.68914
-19.768
-7.73334
8.51236
2.29698
2.09448
-0.0219338
2.17678
43.8144
34.4749
82.2981
81.6624
80.1873
75.6648
93.5879
4.72928
5.6331
6.43921
-10.9274
5.46726
6.31948
2.59569
5.09831
5.21342
4.18567
1.67599
-3.16098
9.30808
130.972
87.1652
80.4831
78.9841
71.9841
52.0295
3.96084
5.08353
2.85534
-4.02364
1.76902
3.90522
3.94942
5.65228
6.53675
6.52637
-1.34706
-3.13766
69.9477
106.317
83.8297
72.66
62.9783
50.3132
-6.25554
3.12275
3.80813
-2.27759
-0.650596
4.68921
4.25191
5.34741
7.23161
4.96221
4.38923
-6.05528
25.0065
37.9267
43.6838
-12.3652
26.0672
43.7984
27.0759
-2.8573
2.35656
2.29757
0.682652
0.23198
0.982954
1.95585
5.0705
7.2451
27.8984
4.61687
0.336453
5.77056
2.28374
13.3967
-8.54127
-5.11988
3.58061
2.30701
-2.79623
2.65768
2.22055
1.05505
-1.51788
0.997845
9.88319
21.3258
18.6303
26.2434
7.13592
-4.14669
0.886745
-3.14086
-5.87897
-5.35834
-5.90322
-3.65922
-5.05278
-3.32841
2.23982
-1.71108
-3.77747
-2.887
-1.10788
9.28548
17.4618
23.8538
20.1554
2.59454
-2.43247
-3.44951
-4.24321
-6.26826
-5.702
-4.6138
-4.51427
-4.13477
-3.93735
-7.76694
-10.4514
-10.7434
-9.94766
-8.72979
-6.35062
5.04207
43.9792
33.6594
-3.48764
-6.13541
-4.35578
-4.68519
-5.66971
-4.10735
-4.75564
-3.37651
-4.54265
-4.13467
-12.6204
-10.8219
-10.979
-9.6098
-8.89899
-7.9168
-9.41381
-4.08232
-6.81198
-4.26966
-5.27467
-4.99521
-4.48238
-5.2887
-4.6442
-5.94261
-3.96556
-4.77702
-4.52632
-12.1511
-12.4088
-10.9595
-9.70654
-9.24336
-10.8531
-8.56617
-8.03363
-7.73326
-6.81293
-6.64179
-5.53228
-5.09242
-5.12007
-5.35734
-5.63694
-5.60554
-5.24907
-4.8401
-12.6294
-11.2764
-10.6778
-9.16867
-8.87295
-8.14257
-8.59686
-7.23298
-7.2901
-6.84732
-6.73381
-6.18554
-5.69379
-5.67535
-5.78702
-5.96501
-5.75157
-5.528
-4.9753
-10.6164
-10.1868
-9.2811
-8.60893
-7.56989
-8.21521
-7.57094
-7.21455
-7.21035
-7.11601
-6.7181
-6.40739
-5.83505
-6.11142
-6.11824
-6.27301
-6.11594
-5.80437
-5.02071
-8.88604
-8.71608
-8.09713
-7.9489
-7.11168
-6.94697
-7.23373
-6.94761
-7.06588
-7.13593
-7.07804
-6.56627
-6.41172
-6.26745
-6.36403
-6.26743
-5.42546
-5.79053
-5.20111
-7.0149
-7.10042
-7.87024
-7.30401
-6.9574
-6.86179
-6.85157
-7.06129
-7.102
-7.32325
-7.14378
-6.5142
-6.5593
-6.33742
-6.15936
-5.64498
-5.60778
-5.83434
-4.73038
-6.63004
-6.78085
-7.27563
-6.67974
-6.70941
-6.54277
-6.54679
-6.81337
-7.45687
-7.45832
-7.39491
-6.88464
-6.45888
-6.39772
-6.17843
-5.97203
-5.90528
-5.82579
-2.77285
-6.29329
-6.7433
-6.27223
-6.44694
-6.55659
-6.9545
-6.67228
-7.73472
-7.16919
-7.68173
-7.33395
-7.02021
-6.68432
-6.51238
-6.28849
-6.15992
-6.03486
-6.1112
-5.98392
-6.04681
-5.88092
-6.07096
-6.37708
-6.54735
-6.57909
-6.46063
-6.87663
-7.47784
-7.78386
-7.21276
-7.04314
-6.80064
-6.52289
-6.31875
-6.25929
-5.99698
-6.23995
-5.94923
-5.90134
-5.61271
-6.00358
-6.22359
-6.33024
-6.43543
-6.35333
-6.74678
-7.45892
-8.15253
-7.64384
-7.07072
-6.80467
-6.5383
-6.33382
-6.23926
-6.04479
-6.12768
-5.85714
-5.37014
-5.39449
-5.94039
-6.24454
-6.35009
-6.57428
-6.36414
-6.77237
-7.40347
-7.84469
-8.02705
-7.00268
-6.83732
-6.54218
-6.36893
-6.23914
-6.10583
-6.11003
-5.90314
-5.41647
-5.33456
-6.14048
-6.69627
-6.08256
-6.14154
-6.364
-6.68277
-6.95524
-7.31611
-7.05974
-6.79809
-6.58054
-6.48869
-6.45503
-6.26509
-6.26919
-6.1498
-6.02747
-5.72628
-5.4773
-6.07193
-6.4501
-5.9553
-5.86339
-6.47217
-6.27799
-6.07736
-7.70392
-7.71176
-6.78809
-6.51626
-6.41358
-6.40875
-6.25093
-6.27038
-6.06648
-5.9874
-6.0705
-5.6051
-5.65924
-6.12071
-6.42562
-5.97275
-6.10733
-6.25052
-6.36836
-6.46679
-7.02702
-7.31597
-6.62126
-6.39651
-6.30109
-5.98188
-6.07304
-6.06022
-5.96968
-5.9182
-5.52846
-5.9059
-5.87059
-6.20871
-5.88911
-5.65024
-6.26065
-6.30804
-7.43461
-6.37846
-6.77667
-6.55049
-6.33998
-6.34656
-6.18451
-6.31787
-6.71994
-5.72036
-5.76714
-5.61766
-6.03903
-6.24578
-6.15097
-6.04874
-5.97897
-6.02249
-5.46435
-5.28916
-6.18713
-6.04131
-6.31782
-6.297
-6.69632
-7.25346
-7.39213
-6.67888
-3.27498
-5.76931
-5.92474
-6.13128
-6.17199
-6.0406
-6.18543
-5.98853
-5.94639
-6.12615
-6.84181
-6.24237
-6.0986
-6.22966
-6.36736
-6.49529
-6.80155
-6.86684
-6.81684
-16.0848
-5.75006
-6.22152
-6.13735
-6.10415
-5.74947
-6.42054
-6.20652
-6.2472
-5.32907
-6.29031
-5.86798
-5.81456
-5.92626
-6.04691
-6.19361
-5.87527
-6.2701
-6.79779
-9.8874
-6.44897
-6.34738
-6.13577
-6.41052
-6.64064
-6.46362
-6.22742
-5.57488
-5.74229
-6.22507
-5.5759
-5.73816
-5.70892
-5.97512
-6.0325
-5.96639
-5.96391
-5.47618
-5.35169
-6.82032
-6.62193
-6.15588
-6.02444
-6.67413
-6.63861
-6.19555
-5.43791
-5.22299
-5.55302
-6.1079
-6.14771
-6.20148
-5.97957
-5.96824
-6.17725
-6.56898
-6.76266
-6.17562
-6.98327
-6.55161
-6.16501
-6.55606
-6.54323
-6.16237
-5.71631
-5.41196
-5.38823
-5.51546
-5.77831
-6.04059
-6.02188
-6.05977
-6.09374
-6.32544
-6.52855
-6.71027
-6.14587
-6.81028
-6.1865
-6.36902
-6.41618
-6.51854
-6.89722
-6.66352
-5.97341
-5.62871
-5.66754
-5.82673
-5.94139
-6.20534
-6.67502
-6.88272
-6.97783
-6.39533
-6.40517
-6.27065
)
;

boundaryField
{
    leftWall
    {
        type            calculated;
        value           nonuniform List<scalar> 
50
(
454.126
394.709
334.731
274.281
213.2
151.824
91.1541
41.1501
12.398
4.23749
3.94696
3.78159
3.61647
3.41688
3.21339
3.01943
2.81591
2.61436
2.41027
2.20254
1.9925
1.77486
1.54967
1.3222
1.07527
0.824123
0.57644
0.367564
0.146022
-0.0806891
-0.314095
-0.557988
-0.794348
-0.958992
-1.39284
-1.72286
-1.80328
-2.1161
-2.36967
-2.66884
-2.92449
-3.22443
-3.41962
-3.85013
-4.12162
-4.41757
-4.72489
-5.00296
-5.32412
-5.61449
)
;
    }
    rightWall
    {
        type            calculated;
        value           nonuniform List<scalar> 
50
(
1449.38
1388.33
1329.63
1288.92
1190.35
1110.16
1033.9
953.272
837.421
647.463
510.915
393.943
276.213
121.524
104.772
111.136
107.874
101.538
98.1381
104.8
93.5879
52.0295
-6.25554
-2.8573
-2.79623
-3.32841
-3.93735
-4.13467
-4.52632
-4.8401
-4.9753
-5.02071
-5.20111
-4.73038
-2.77285
-5.98392
-5.94923
-5.85714
-5.90314
-6.02747
-5.9874
-5.96968
-5.72036
-3.27498
-16.0848
-9.8874
-5.35169
-6.17562
-6.14587
-6.27065
)
;
    }
    lowerWall
    {
        type            calculated;
        value           nonuniform List<scalar> 
62
(
483.556
488.9
494.747
510.51
530.32
557.012
597.134
631.063
671.155
695.645
726.337
736.187
753.453
766.229
779.428
791.317
802.837
812.539
821.446
830.613
837.554
844.262
846.788
817.359
758.9
700.987
642.942
585.899
530.866
471.74
425.641
370.93
328.769
266.051
189.826
2183.56
1791.71
1047.8
716.511
489.292
335.643
185.773
14.391
2212.58
944.038
238.102
220.871
589.956
1088.53
1307.79
1261.27
1159.66
952.097
865.666
1001.78
1037.18
1109.45
1020.55
1129.59
1427.08
1516.88
1478.23
)
;
    }
    atmosphere
    {
        type            calculated;
        value           nonuniform List<scalar> 
46
(
-5.72904
-5.72904
-5.72904
-5.72904
-5.72904
-5.72904
-5.72904
-5.72904
-5.72904
-5.72904
-5.72904
-5.72904
-5.72904
-5.72967
-5.77064
-5.74188
-6.09293
-6.29035
-6.44761
-6.56641
-6.45302
-5.74956
-7.80969
-7.80969
-7.33718
-6.65943
-7.12553
-7.35893
-6.45067
-5.97917
-6.14497
-6.28933
-7.6122
-7.3977
-6.47655
-5.73038
-5.79856
-5.92114
-6.07813
-6.23087
-6.57847
-6.63894
-6.73045
-6.5507
-6.69085
-5.86387
)
;
    }
    defaultFaces
    {
        type            empty;
    }
}


// ************************************************************************* //
