/*--------------------------------*- C++ -*----------------------------------*\
| =========                 |                                                 |
| \\      /  F ield         | foam-extend: Open Source CFD                    |
|  \\    /   O peration     | Version:     4.1                                |
|   \\  /    A nd           | Web:         http://www.foam-extend.org         |
|    \\/     M anipulation  |                                                 |
\*---------------------------------------------------------------------------*/
FoamFile
{
    version     2.0;
    format      ascii;
    class       volScalarField;
    location    "0.3";
    object      alpha1;
}
// * * * * * * * * * * * * * * * * * * * * * * * * * * * * * * * * * * * * * //

dimensions      [0 0 0 0 0 0 0];

internalField   nonuniform List<scalar> 
2268
(
1
1
0.999999
0.999999
1
1
1
1
1
1
1
1
1
1
1
1
1
1
1
1
1
1
0.999447
0.999999
0.999999
0.999999
0.999999
1
1
1
1
1
1
1
1
1
1
1
1
1
1
1
1
1
1
0.999491
0.999999
0.999999
0.999999
1
1
1
1
1
1
1
1
1
1
1
1
1
1
1
1
1
1
1
0.999675
0.999999
1
1
1
1
1
1
1
1
1
1
1
1
1
1
1
1
1
1
1
1
1
0.999846
1
1
1
1
1
1
1
1
1
1
1
1
1
1
1
1
1
1
1
1
1
1
0.999928
1
1
1
1
1
1
1
1
1
1
1
1
1
1
1
1
1
1
1
1
1
1
0.999888
1
1
1
1
1
1
1
1
1
1
1
1
1
1
1
1
1
1
1
1
1
1
0.999793
1
1
1
1
1
1
1
1
1
1
1
1
1
1
1
1
1
1
1
1
1
1
0.998731
3.8483e-16
1.64904e-08
1.66963e-09
1.29493e-11
3.97694e-15
9.23608e-20
8.50913e-21
7.38818e-22
5.23643e-23
3.88614e-24
6.43878e-25
3.49881e-25
9.47783e-26
4.5191e-26
7.34982e-27
9.60006e-28
7.34032e-29
3.85254e-30
9.80611e-32
2.74799e-10
1.20348e-05
2.4792e-06
4.93595e-08
4.94276e-11
9.85531e-16
3.66195e-21
5.81178e-22
7.69503e-23
1.35614e-23
1.31663e-23
9.48256e-24
3.00017e-24
1.1154e-24
1.81043e-25
1.52865e-26
1.32376e-27
7.75617e-29
2.2197e-30
1.63532e-06
0.000660559
0.000278833
1.37856e-05
3.80844e-08
8.70765e-13
1.40603e-19
5.3869e-23
1.07074e-23
7.04745e-23
1.65645e-22
1.12027e-22
4.06206e-23
9.70259e-24
1.04568e-24
1.03855e-25
9.84188e-27
6.26347e-28
1.93291e-29
0.000354254
0.00816569
0.00406283
0.000270703
7.17763e-07
2.95345e-12
2.577e-19
3.00992e-23
3.03902e-23
5.50512e-22
1.1025e-21
7.59791e-22
3.10475e-22
6.8925e-23
1.0579e-23
1.96311e-24
1.98463e-25
1.40589e-26
4.92865e-28
0.0106947
0.0405345
0.0110381
0.000526387
7.44323e-07
6.31049e-13
2.42145e-20
4.49536e-23
1.36735e-22
2.36212e-21
3.7592e-21
2.88667e-21
1.34462e-21
4.69527e-22
1.25637e-22
1.63049e-23
1.87258e-24
1.40075e-25
5.05908e-27
0.0967569
0.0968337
0.0097609
0.0003336
2.51959e-07
3.48518e-14
1.15415e-22
9.57993e-23
3.27135e-22
4.95758e-21
6.19821e-21
5.5633e-21
3.33258e-21
1.59933e-21
3.24949e-22
4.94479e-23
6.07054e-24
4.75708e-25
1.79876e-26
0.361992
0.106044
0.00102362
0.000149812
1.62672e-08
1.91613e-16
-1.17418e-23
1.08368e-22
3.05258e-22
3.81521e-21
3.46023e-21
5.03778e-21
5.8345e-21
4.56493e-21
1.35992e-21
2.676e-22
3.87197e-23
3.42646e-24
1.42534e-25
0.592915
0.0668565
0.00148148
2.44758e-05
1.92002e-09
6.28485e-18
-3.33169e-22
1.89362e-24
9.58681e-26
-1.2756e-25
-4.92625e-26
-4.89146e-27
5.44589e-30
4.90384e-21
3.09962e-21
8.84578e-22
1.6019e-22
1.6445e-23
7.60748e-25
1
1
1
1
1
1
1
1
1
1
1
0.999999
0.999994
0.999984
0.999987
0.999992
0.999996
0.999998
0.999999
1
1
1
0.995327
0.999999
0.999999
0.999999
0.999998
0.999999
0.999998
0.999998
0.999996
0.999992
0.999983
0.999904
0.999682
0.999325
0.99818
0.998293
0.998238
0.998229
0.99857
0.999375
0.999899
0.999995
1
0.999238
0.999232
0.999093
0.999251
0.998899
0.999023
0.998848
0.998802
0.998162
0.996601
0.994127
0.981532
0.957545
0.965817
0.96132
0.957647
0.946098
0.904334
0.898705
0.926326
0.959716
0.986247
0.995668
0.998309
0.944088
0.940588
0.946638
0.936099
0.939935
0.936301
0.935863
0.915347
0.873307
0.821465
0.667851
0.49228
0.583614
0.709988
0.709177
0.59496
0.381563
0.211394
0.248018
0.341829
0.572672
0.826262
0.940675
0.481163
0.47334
0.495391
0.460535
0.475264
0.467343
0.469606
0.398041
0.282384
0.174864
0.0671995
0.022784
0.0459186
0.140922
0.148417
0.0848878
0.0208068
0.00836362
0.0158623
0.0435019
0.0745536
0.144175
0.255565
0.0286997
0.0286547
0.0316612
0.0278023
0.0300948
0.0298456
0.0308431
0.0198856
0.0076901
0.00227497
0.000619127
0.000230516
0.000820553
0.0067106
0.0109058
0.00851361
0.00439538
0.00104303
0.000475804
0.00110886
0.000890721
0.00296025
0.00782205
0.000551741
0.000609561
0.000665373
0.00063582
0.000693218
0.000847068
0.00101565
0.000630744
0.000169916
2.21176e-05
6.8654e-06
1.4288e-05
2.90099e-05
0.000150057
0.000202679
0.000243628
0.000399305
0.00056628
0.000448118
0.000207086
6.21847e-05
6.33353e-05
3.93696e-05
1.11107e-05
1.32261e-05
1.25535e-05
1.2017e-05
1.44048e-05
2.47982e-05
3.73623e-05
2.48403e-05
7.03415e-06
1.31275e-06
3.09145e-06
1.4378e-05
1.99541e-05
3.50698e-05
5.94765e-05
0.000180424
0.000326399
0.000959956
0.000963175
0.000964368
0.000963175
0.000462322
6.68509e-05
1.97546e-07
1.89643e-07
1.09744e-07
1.18786e-07
1.96534e-07
3.89675e-07
6.24948e-07
4.162e-07
1.11135e-07
8.04369e-07
1.67238e-05
5.6673e-05
9.73881e-05
8.82321e-05
0.000118396
0.000553966
0.000697388
0.000691328
0.000732913
0.000651116
0.000348821
0.000110185
1.71455e-05
3.22874e-09
2.11814e-09
6.55209e-10
6.75936e-10
1.47817e-09
2.94958e-09
3.23658e-09
3.92055e-09
2.14125e-08
1.61057e-06
3.16041e-05
7.02563e-05
0.000103974
7.41802e-05
7.47787e-05
0.000100646
0.000216045
8.37027e-05
3.44338e-05
8.04166e-05
0.00018074
0.000141695
8.1497e-05
4.46209e-11
2.63609e-11
4.57741e-12
3.67944e-12
1.17275e-11
2.20298e-11
1.35078e-10
2.34264e-09
6.27674e-08
1.20952e-06
3.06227e-05
1.07914e-05
2.6993e-05
6.88754e-06
1.0942e-06
4.56528e-06
4.74759e-06
4.62985e-06
3.34826e-06
1.09962e-05
0.00018099
0.000478394
0.00071992
4.45726e-12
2.85381e-12
3.50159e-13
5.1644e-13
2.81036e-12
1.79815e-11
2.56056e-10
4.13053e-09
8.42626e-08
3.213e-07
8.61024e-06
1.67491e-06
7.3976e-07
7.86128e-08
3.17319e-08
9.61175e-08
2.49298e-07
4.42432e-07
3.54876e-07
4.71165e-07
2.63902e-06
8.60132e-06
6.66968e-06
1.43374e-12
8.2633e-13
7.73423e-14
2.88319e-13
3.00241e-12
2.56415e-11
2.41357e-10
1.67293e-09
6.3589e-08
1.66067e-07
7.05883e-07
1.88261e-07
6.00984e-08
4.15682e-09
8.07191e-10
9.51733e-09
1.10759e-08
1.39747e-08
1.27901e-08
4.23742e-09
5.8143e-10
4.20114e-11
7.70998e-12
2.73644e-13
1.3906e-13
1.32251e-14
2.06546e-13
3.0682e-12
1.87974e-11
7.97628e-11
3.53564e-10
4.35628e-08
3.22648e-08
1.78105e-08
3.2793e-09
6.57237e-09
2.35204e-09
2.64916e-10
1.17216e-10
7.14548e-11
2.3793e-11
5.28775e-12
1.7324e-13
1.02842e-15
6.81185e-18
4.0008e-18
3.21721e-14
1.50555e-14
3.11303e-15
1.58418e-13
2.55509e-12
5.46288e-12
1.63438e-11
5.03736e-11
1.4535e-10
2.55333e-10
9.08155e-10
9.5793e-10
4.30419e-09
2.52802e-09
3.51273e-10
9.15471e-12
9.0912e-14
9.37939e-15
9.33032e-16
7.95889e-17
2.47729e-17
9.81126e-18
5.44738e-18
3.76871e-15
1.85993e-15
1.44547e-15
1.00569e-13
1.57441e-12
1.04301e-12
2.12125e-12
3.9735e-12
1.43471e-11
3.34969e-11
3.86715e-10
9.15001e-10
4.03876e-09
1.4839e-09
1.5834e-10
4.24246e-12
2.02963e-14
1.80137e-15
1.90263e-16
4.31302e-17
1.45506e-17
5.87188e-18
4.63898e-18
8.51549e-16
4.48561e-16
7.03532e-16
2.87621e-14
3.66916e-13
1.38242e-13
3.8044e-13
1.52584e-12
1.11036e-11
1.4923e-11
3.08078e-10
3.8863e-10
1.18459e-09
3.75837e-10
3.27061e-11
9.848e-13
1.29283e-14
1.33518e-16
1.56315e-17
7.78812e-18
3.35328e-18
1.94165e-18
7.26377e-16
1.77452e-16
8.26737e-17
2.91512e-16
6.27773e-15
6.11059e-14
1.3239e-14
1.17877e-13
3.28668e-13
9.53262e-13
1.42039e-12
6.12238e-11
7.48019e-11
1.12256e-10
3.9532e-11
6.39641e-12
5.22277e-13
1.33877e-14
7.61605e-17
4.67291e-18
1.72415e-18
6.23389e-19
1.87305e-18
5.2036e-13
2.08757e-17
1.63135e-17
1.02559e-16
1.5957e-15
5.56536e-15
3.05145e-15
3.20117e-14
2.38518e-14
2.98144e-14
4.83451e-14
7.10988e-12
7.90676e-12
4.96205e-12
1.02234e-12
2.57991e-13
1.00035e-13
6.48927e-15
1.05669e-16
6.53702e-18
1.90857e-18
5.04755e-19
5.2942e-18
5.51725e-11
4.20455e-23
8.98077e-22
3.08246e-17
1.36298e-16
2.7844e-16
7.84264e-16
3.11881e-15
3.03243e-15
1.60459e-15
2.91106e-15
3.03247e-13
5.12846e-13
1.94638e-13
7.68334e-14
2.02777e-14
3.73676e-15
2.46673e-16
2.64133e-17
6.57002e-18
1.31056e-18
3.02818e-19
1.13063e-17
1.59921e-09
2.25648e-23
4.72655e-22
8.02348e-20
1.15428e-18
1.98588e-17
2.11186e-16
5.98252e-16
6.89462e-16
3.13669e-16
8.67228e-16
1.00763e-14
1.9611e-14
1.00751e-14
4.76327e-15
1.72088e-15
7.35754e-16
1.17291e-16
2.00074e-17
3.39291e-18
5.73945e-19
2.2742e-19
4.07948e-17
1.57477e-08
9.50384e-24
1.77371e-22
1.86532e-20
2.33483e-19
3.48178e-18
2.96766e-17
6.94732e-17
3.20177e-17
4.01767e-17
3.17691e-16
1.36659e-15
1.05193e-15
6.90144e-16
3.62677e-16
1.918e-16
9.09198e-17
2.40684e-17
4.66557e-18
7.69349e-19
1.58873e-19
6.48469e-19
2.81147e-15
6.69247e-08
3.08534e-24
4.91473e-23
3.10365e-22
7.67755e-22
5.55802e-22
2.56418e-20
8.90779e-20
9.97466e-19
4.64146e-18
9.4236e-17
1.19674e-16
6.79295e-17
2.34361e-17
4.66204e-18
1.15678e-18
3.07411e-19
6.20657e-20
1.16645e-20
4.39382e-21
7.97088e-22
2.88824e-18
8.15715e-14
1.6747e-07
9.40158e-26
1.98559e-24
9.14398e-24
6.53833e-24
4.57432e-23
3.03465e-22
1.1008e-21
4.83578e-21
1.23346e-20
1.94524e-19
1.45666e-19
8.05365e-20
4.07349e-20
1.23551e-20
9.01886e-22
1.2745e-21
4.11262e-22
1.17347e-22
6.34293e-23
3.81092e-22
1.20991e-17
6.73738e-13
2.64129e-07
1.22988e-34
8.71096e-34
4.13804e-32
3.44582e-29
1.47696e-27
1.58929e-26
1.30036e-25
2.69684e-24
1.70284e-23
2.69875e-23
3.09462e-23
3.19639e-23
2.36661e-23
1.09652e-23
1.40913e-24
6.87609e-24
2.54778e-24
4.05138e-24
3.49979e-23
4.65389e-22
4.36834e-17
2.17871e-12
2.24741e-07
2.9876e-36
1.06699e-34
6.06825e-33
3.14521e-31
4.39678e-30
2.26401e-28
5.17763e-26
1.55649e-25
4.22022e-25
8.67292e-25
1.34601e-24
1.51527e-24
9.61266e-25
1.55016e-25
5.68682e-26
2.20856e-25
3.2274e-25
4.92472e-24
4.26203e-23
6.03293e-22
1.35133e-16
3.82323e-12
4.91561e-09
1.54179e-40
2.31555e-38
4.57313e-37
2.8254e-36
1.10068e-32
9.66345e-32
3.61576e-31
1.49007e-30
5.0627e-30
1.3605e-29
2.92508e-29
4.95871e-29
5.109e-29
1.8582e-29
2.64687e-28
3.43389e-27
6.94111e-26
6.88072e-24
5.23833e-23
7.83802e-22
4.37696e-19
6.54302e-14
1.76284e-10
4.15643e-42
2.26347e-38
4.3424e-37
1.67919e-36
9.74129e-36
6.29873e-35
3.75002e-34
1.48108e-33
5.13276e-33
1.3726e-32
3.26182e-32
1.13395e-31
1.31375e-30
2.478e-29
4.86665e-28
5.34392e-27
6.86512e-26
1.01404e-23
6.82092e-23
9.62002e-22
4.12216e-21
1.27283e-20
1.84179e-19
8.05501e-48
1.03357e-45
3.55524e-44
5.6141e-43
8.36603e-42
1.41154e-40
1.81524e-39
3.04978e-38
7.89865e-37
2.66855e-35
1.01447e-33
3.7452e-32
1.40684e-30
4.61046e-29
8.81186e-28
1.00273e-26
8.28508e-26
1.54801e-23
9.21115e-23
1.12728e-21
3.58442e-21
8.97602e-21
1.17991e-20
5.55179e-50
8.94048e-48
4.66117e-46
1.13387e-44
2.51301e-43
5.12174e-42
1.26946e-40
3.88139e-39
1.41999e-37
5.63277e-36
2.36177e-34
1.2736e-32
9.26573e-31
4.84977e-29
1.12475e-27
1.47909e-26
1.77673e-25
5.19539e-24
8.37706e-23
9.791e-22
2.45443e-21
6.87241e-21
1.22463e-20
1.41071e-52
2.01943e-50
1.20839e-48
5.24026e-47
2.22161e-45
9.33478e-44
4.14386e-42
1.90001e-40
8.95876e-39
4.34914e-37
2.19634e-35
1.04259e-33
5.22921e-32
5.20086e-29
6.33927e-28
8.23753e-27
8.44336e-26
7.31102e-25
7.25537e-23
4.61561e-22
2.17849e-21
5.35539e-21
1.38587e-20
2.97282e-54
7.09105e-52
9.24365e-50
9.79789e-48
7.00553e-46
5.47854e-44
4.07485e-42
3.04824e-40
2.24803e-38
1.66081e-36
1.16444e-34
7.2241e-33
3.52543e-31
1.48297e-29
3.4571e-28
7.83156e-27
1.41852e-25
2.05892e-24
2.60828e-23
2.09561e-22
1.19039e-21
5.1115e-21
1.53333e-20
1.39211e-55
4.57204e-53
8.57532e-51
1.01688e-48
1.01453e-46
8.80347e-45
6.85136e-43
4.74369e-41
3.06366e-39
1.98244e-37
1.28724e-35
8.18658e-34
4.4689e-32
2.11417e-30
6.36375e-29
1.73472e-27
3.6302e-26
5.59171e-25
6.36481e-24
4.29495e-23
3.4911e-22
4.32124e-21
1.10913e-20
1.86699e-58
9.47508e-56
2.50746e-53
4.2148e-51
5.84669e-49
6.44607e-47
6.10335e-45
4.98038e-43
3.51337e-41
2.12906e-39
1.09163e-37
4.81806e-36
1.80803e-34
6.26038e-33
2.00024e-31
6.73041e-30
1.93004e-28
4.13949e-27
6.90024e-26
3.96138e-24
4.54748e-23
4.67841e-22
3.60075e-21
2.7281e-60
2.20439e-57
7.55846e-55
1.74922e-52
3.04277e-50
4.10931e-48
4.6004e-46
4.32403e-44
3.43155e-42
2.28538e-40
1.27216e-38
5.72362e-37
2.08014e-35
6.26751e-34
1.55745e-32
3.88626e-31
8.47829e-30
1.68196e-28
2.93486e-27
5.3563e-26
8.3178e-25
1.21348e-23
1.35433e-22
1.10852e-63
1.09769e-60
4.72438e-58
1.29531e-55
2.72625e-53
4.60606e-51
6.52186e-49
7.74954e-47
7.80228e-45
6.58571e-43
4.68602e-41
2.76209e-39
1.34679e-37
5.44034e-36
1.85557e-34
5.97139e-33
1.55655e-31
3.47372e-30
6.56395e-29
1.29454e-27
2.33269e-26
1.51011e-25
1.50561e-24
9.47379e-68
1.46448e-64
1.06533e-61
4.6284e-59
1.45771e-56
3.65358e-54
7.38451e-52
1.25095e-49
1.76899e-47
2.06226e-45
1.98352e-43
1.53495e-41
9.64243e-40
4.8486e-38
2.09322e-36
8.33465e-35
2.65261e-33
7.18261e-32
1.57768e-30
3.02135e-29
4.46352e-28
5.68104e-27
7.38147e-26
2.06955e-72
3.60181e-69
3.09459e-66
1.60145e-63
6.53482e-61
2.17525e-58
6.28156e-56
1.58833e-53
3.56268e-51
6.94836e-49
1.159e-46
1.6189e-44
1.88875e-42
1.69299e-40
1.29772e-38
7.76497e-37
3.17613e-35
9.74548e-34
2.1595e-32
3.65759e-31
1.81122e-29
4.02206e-28
6.89166e-27
1.96203e-77
4.25341e-74
4.1007e-71
2.47558e-68
1.11917e-65
4.03351e-63
1.21224e-60
3.19638e-58
7.7005e-56
1.84654e-53
4.7135e-51
1.51415e-48
6.13085e-46
3.17361e-43
8.60164e-41
1.04214e-38
6.35791e-37
2.77401e-35
9.57631e-34
2.6433e-32
6.85359e-31
1.32855e-29
2.24874e-28
2.12227e-89
3.77638e-86
1.65618e-83
3.66325e-81
5.02322e-79
4.76111e-77
3.36384e-75
1.89968e-73
8.65263e-72
3.34215e-70
1.42125e-68
7.55593e-67
6.7144e-65
1.54276e-62
1.02543e-44
6.32836e-42
5.65382e-40
3.02081e-38
1.18969e-36
3.58652e-35
1.01225e-33
2.22654e-32
4.74917e-31
9.67702e-103
4.82731e-99
1.9878e-96
4.2397e-94
5.1752e-92
4.55871e-90
2.80297e-88
1.25588e-86
4.20745e-85
1.47563e-83
6.47379e-82
3.95586e-80
4.20751e-78
7.69784e-76
2.99873e-69
2.34601e-45
4.9766e-43
3.32136e-41
1.6432e-39
6.64855e-38
3.65144e-36
3.83447e-34
7.22878e-33
0
0
0
0
0
0
0
0
0
0
0
0
0
0
0
3.3744e-55
3.9112e-52
1.31817e-50
1.94753e-49
1.35322e-48
4.70958e-48
1.67002e-47
1.18034e-34
0.995335
0.997429
0.999614
0.999855
0.998477
0.998864
0.999759
0.999756
0.999098
0.99937
0.999655
0.999812
0.983748
0.991793
0.995095
0.996769
0.341275
0.32374
0.361296
0.606244
0.0142513
0.0174988
0.0245596
0.041475
4.40973e-05
5.90243e-05
0.000102824
0.000192195
4.967e-06
4.96701e-06
4.96701e-06
5.15349e-06
4.967e-06
4.967e-06
4.96701e-06
4.96701e-06
5.51556e-05
4.46988e-05
2.2174e-05
1.37326e-05
0.000742062
0.000740579
0.000742062
0.000361256
6.21769e-06
4.40709e-06
2.1735e-06
5.1591e-07
4.09908e-13
3.58715e-14
1.0579e-15
2.71715e-17
3.1582e-18
2.63554e-18
2.60919e-18
2.77305e-18
4.31972e-18
3.59646e-18
3.60265e-18
4.10764e-18
4.1289e-18
4.09941e-18
1.51526e-17
1.87942e-17
1.11402e-15
3.46045e-15
4.55069e-14
9.03518e-14
1.93864e-12
1.29626e-11
9.12621e-11
2.06629e-10
7.04908e-10
1.04885e-08
4.86801e-08
9.98686e-08
5.75559e-08
1.30943e-06
4.72257e-06
1.01193e-05
1.1492e-06
3.05697e-05
0.000100282
0.000246313
6.45653e-06
0.000177206
0.00062758
0.00131875
1.35973e-05
0.00032933
0.00135379
0.00222503
1.5069e-05
0.000279234
0.00123383
0.0021763
5.35778e-06
0.000121396
0.000813169
0.0018988
2.1268e-07
2.92071e-05
0.000480771
0.00173213
8.86576e-09
1.66192e-06
4.96114e-05
0.000388182
5.78287e-17
1.44715e-11
8.18374e-08
2.10652e-05
6.83221e-21
2.08002e-21
2.69878e-22
1.6447e-22
1.15801e-20
6.10332e-21
7.89556e-22
3.54635e-23
1.95481e-20
1.30544e-20
2.90572e-21
2.9632e-24
2.92077e-20
2.46179e-20
1.0286e-20
-1.39812e-26
3.06622e-20
3.31718e-20
2.1794e-20
-3.47905e-29
1.50328e-20
3.01374e-20
3.84516e-20
-4.46372e-34
1.6697e-21
6.13949e-21
1.83234e-20
4.52044e-20
1.4914e-23
1.38442e-22
1.29967e-21
1.02402e-20
9.69904e-25
4.01262e-24
1.2869e-23
4.11836e-23
5.14244e-26
2.82159e-25
1.29581e-24
5.88903e-24
3.21784e-27
2.03808e-26
1.13144e-25
5.89584e-25
2.8379e-29
2.49803e-28
3.41901e-27
2.33443e-26
1.51767e-31
2.57491e-30
3.3193e-29
9.1288e-28
7.24579e-33
1.21466e-31
1.45141e-30
1.28462e-29
0.672163
0.00536072
9.3877e-05
2.84868e-05
0.000206089
0.00188983
0.00106295
3.82287e-06
3.53235e-07
2.86295e-07
2.06229e-07
7.16353e-09
9.50462e-12
2.66914e-16
1.65322e-20
4.53102e-21
8.15895e-22
8.5715e-23
4.15862e-24
0.996671
0.943508
0.917864
0.325032
0.0871584
0.105269
0.0525167
0.00316762
0.000945797
0.00048264
0.00021187
7.70113e-06
1.577e-08
9.49816e-13
1.60121e-18
6.51864e-21
2.17718e-21
3.59631e-22
2.50994e-23
0.999943
0.999953
0.999378
0.876804
0.896538
0.843947
0.386208
0.0657341
0.0917156
0.0623203
0.0148305
0.000428156
1.06213e-06
3.84618e-10
6.26459e-15
1.11739e-20
3.09536e-21
7.05785e-22
6.38473e-23
0.998139
0.999413
0.999553
0.999053
0.998378
0.991493
0.978041
0.947204
0.740767
0.553692
0.158327
0.00960601
0.00065825
1.24023e-05
1.7884e-08
1.25842e-12
2.58867e-18
7.17184e-22
9.42994e-23
0.770916
0.860168
0.911748
0.881929
0.947577
0.991989
0.995122
0.994578
0.988413
0.983872
0.752807
0.196484
0.0677239
0.00671247
9.12425e-05
1.0548e-07
6.07873e-12
8.43994e-18
1.04671e-22
0.115016
0.203919
0.161729
0.210939
0.636086
0.863707
0.980276
0.996841
0.997007
0.997007
0.984391
0.842122
0.63382
0.176911
0.0112107
7.72858e-05
3.7806e-08
6.16015e-13
1.2992e-19
0.00730016
0.00540956
0.0053521
0.01597
0.0888421
0.224376
0.691107
0.718694
0.896645
0.987049
0.995586
0.995586
0.993327
0.755476
0.153057
0.00434589
1.05507e-05
1.18044e-09
2.33121e-15
0.00010806
0.000131731
0.0003261
0.00162122
0.00535994
0.0076061
0.016655
0.0178369
0.117992
0.597083
0.941263
0.995338
0.994735
0.879348
0.260527
0.0135875
7.38317e-05
2.35369e-08
1.584e-13
4.96702e-06
5.53595e-06
2.216e-05
0.000254637
0.000340363
0.000213519
4.90407e-05
5.3523e-05
0.00259736
0.042715
0.227329
0.79926
0.966555
0.690177
0.13361
0.00555579
4.01453e-05
1.90415e-08
2.0407e-13
0.000191397
0.000942754
0.000989952
0.000991109
0.000521931
8.08573e-05
2.30693e-06
1.87953e-06
0.000205525
0.00684854
0.187054
0.821542
0.920186
0.468479
0.0564453
0.00148335
1.03917e-05
7.6246e-09
1.5532e-13
0.000101065
0.000145144
0.00016307
0.000114374
3.38407e-05
2.21553e-06
1.22736e-07
2.1622e-06
0.000101427
0.00497158
0.181832
0.820095
0.917044
0.484046
0.0577009
0.00113257
3.18136e-06
1.42204e-09
4.17979e-14
1.01715e-06
4.54054e-06
3.74891e-06
2.67316e-06
1.51163e-06
4.48226e-07
3.72007e-08
3.67775e-07
4.98662e-05
0.00272273
0.115241
0.754654
0.912781
0.518492
0.0687219
0.001587
4.20299e-06
9.82804e-10
1.15269e-14
7.89722e-12
2.66777e-10
3.27896e-10
1.39754e-10
7.05334e-10
4.0521e-09
1.59166e-09
2.51183e-08
1.40475e-05
0.00102509
0.0417538
0.501145
0.88737
0.642876
0.131769
0.0085602
6.2577e-05
4.67042e-08
2.25043e-12
1.16779e-11
2.57791e-09
2.77837e-09
1.06312e-09
1.28064e-10
3.78692e-11
3.78056e-11
1.26872e-09
1.99522e-06
0.0001524
0.00217727
0.0265693
0.104481
0.366019
0.555143
0.268036
0.0242758
0.000346483
5.12295e-07
2.85595e-11
1.44431e-08
8.53437e-08
7.10938e-08
3.94617e-08
1.59201e-08
2.34249e-09
1.42511e-09
1.20544e-07
7.26927e-06
2.66161e-05
0.000113228
0.00178593
0.0874923
0.715444
0.670322
0.189928
0.00870391
3.7645e-05
8.14518e-12
1.23825e-08
2.65054e-07
1.17307e-06
1.21419e-06
8.30236e-07
2.26736e-07
4.29154e-08
1.59326e-07
2.1111e-07
5.63321e-07
3.49252e-05
0.00309749
0.186873
0.793787
0.799693
0.307828
0.0229837
0.000142414
2.95562e-12
7.15459e-09
3.68684e-07
5.54863e-06
1.82348e-05
1.77718e-05
9.42695e-06
1.08682e-06
1.05078e-06
1.3693e-05
4.75527e-05
0.000656365
0.0357262
0.55841
0.801187
0.73353
0.235984
0.0176997
0.000132606
2.01174e-09
7.42204e-09
9.12254e-07
3.51265e-05
0.000110445
6.85466e-05
1.34244e-05
1.02952e-06
2.83002e-06
0.000186775
0.00407568
0.0369528
0.179033
0.460667
0.456101
0.25763
0.0621579
0.00699593
8.07307e-05
9.44944e-07
9.15089e-07
4.14275e-06
0.000111545
0.000146349
4.3626e-05
6.2329e-06
3.61303e-06
0.000436617
0.00196793
0.00844512
0.0524068
0.0629535
0.063038
0.0390119
0.0164946
0.00527776
0.00195085
3.22583e-05
4.62802e-05
3.92407e-05
8.17105e-05
0.000231695
0.00016217
5.60771e-05
3.24345e-05
0.000110099
0.00272627
0.00457696
0.00505508
0.0121119
0.00518607
0.000957646
0.000109109
0.000177811
0.000232706
0.000359125
7.50668e-06
0.000534278
0.0003353
0.000363387
0.000564149
0.000452867
0.000640534
0.00153313
0.00153373
0.00173606
0.000807896
0.000203877
0.000364569
3.80101e-05
8.18944e-07
2.26712e-07
2.03127e-06
1.23813e-05
3.41482e-05
6.85217e-07
0.00183833
0.00088561
0.000918803
0.00100022
0.00111097
0.00117952
0.00118493
0.000706195
0.000128694
8.1518e-06
4.06318e-07
4.35898e-07
2.2181e-08
1.0293e-10
1.05533e-09
2.9317e-08
3.97682e-07
1.28576e-06
1.28201e-08
0.00262368
0.000720629
0.000515862
0.000459907
0.000566899
0.000570961
0.000229272
8.78818e-05
1.81294e-06
3.1004e-07
2.57846e-07
7.77816e-08
1.44572e-08
1.00363e-10
4.02933e-12
2.16941e-10
3.724e-09
1.26154e-08
2.29712e-11
0.00262474
0.000367731
0.000221247
0.000130054
0.000105013
8.22531e-05
4.06767e-05
6.83762e-05
6.52386e-05
4.92002e-05
5.54511e-05
6.55073e-05
8.97265e-06
1.06959e-06
1.10567e-13
1.60277e-13
4.5865e-12
1.79098e-11
1.87962e-15
0.00254141
0.00015141
5.31035e-05
2.11982e-05
1.66042e-05
1.63668e-05
1.64467e-05
7.46844e-05
0.000253669
0.00068197
0.00162015
0.002462
0.00219535
0.00038907
1.00934e-08
1.59172e-17
3.44522e-16
1.8543e-15
2.19635e-18
0.00254676
0.000425373
1.65918e-05
1.64465e-05
1.62137e-05
1.63482e-05
1.63682e-05
3.04344e-05
0.000103564
0.000295013
0.0015755
0.00944962
0.0271947
0.0150889
6.22073e-05
2.61581e-19
2.58347e-19
6.0432e-19
1.51395e-18
0.00148327
0.00221464
0.000158097
1.63674e-05
1.62264e-05
1.61948e-05
1.6446e-05
1.64968e-05
5.20867e-05
0.000327155
0.00607018
0.161763
0.226951
0.0925138
0.00535392
2.58419e-07
2.15479e-19
3.61999e-19
7.06465e-19
0.000790293
0.00247542
0.00212038
1.64181e-05
1.61979e-05
1.62158e-05
1.63138e-05
4.97329e-05
0.000556624
0.0100263
0.18315
0.42017
0.412214
0.121524
0.00669081
2.30489e-05
2.07219e-10
1.79312e-19
2.45759e-19
0.00018444
0.00161714
0.00280905
1.98876e-05
1.62264e-05
1.95528e-05
5.95337e-05
0.00122307
0.0300888
0.278569
0.42017
0.421341
0.280814
0.0586013
0.00284361
1.09474e-05
1.7487e-10
7.45929e-20
6.99137e-20
3.30856e-05
0.000703724
0.00245683
0.000402385
0.000330824
0.00073842
0.00299191
0.0303466
0.264797
0.375574
0.378883
0.242415
0.0623065
0.00673872
0.000291063
1.03833e-06
1.51428e-11
2.66701e-20
1.69546e-20
1.03802e-06
9.74384e-05
0.00148444
0.0047541
0.00588775
0.0101697
0.0318955
0.117235
0.173562
0.171948
0.105914
0.0314033
0.00307825
0.000134723
5.5969e-06
1.38011e-08
1.10764e-13
8.31144e-21
3.58186e-21
1.64387e-08
7.47139e-06
0.000382658
0.00335998
0.00751885
0.0127405
0.0349455
0.0524876
0.0277901
0.0139975
0.0052884
0.000514453
1.74326e-05
3.86635e-07
1.32141e-08
1.80916e-11
6.35342e-17
2.22876e-21
6.67256e-22
1.91345e-11
6.55194e-08
1.60778e-05
0.000460316
0.00219352
0.00411659
0.00916158
0.00444073
0.000685428
0.000130695
2.93668e-05
7.74495e-07
7.73604e-09
1.34619e-10
2.18491e-12
1.71904e-15
1.51441e-18
5.13315e-22
1.12418e-22
4.20179e-16
1.59178e-11
2.92536e-08
3.9581e-06
5.77887e-05
0.000149542
0.000257067
3.84745e-05
1.61429e-06
1.17542e-07
1.52954e-08
8.02035e-11
2.40322e-13
3.44292e-15
2.27992e-17
3.83842e-19
7.44605e-19
9.07887e-23
1.72067e-23
8.81936e-20
1.05133e-16
1.42489e-12
1.0033e-09
5.19264e-08
2.62506e-07
4.67359e-07
2.13409e-08
2.54845e-10
7.54351e-12
5.23068e-13
4.0535e-16
4.43448e-19
9.18803e-20
1.29401e-19
2.26572e-19
2.47286e-19
1.62117e-23
2.02988e-24
6.12976e-20
4.65418e-19
4.99147e-18
6.41383e-15
1.13822e-12
1.49932e-11
3.5678e-11
4.78228e-13
2.0371e-15
2.41859e-17
8.86972e-19
2.30027e-20
3.85483e-20
6.27308e-20
8.75307e-20
1.14517e-19
4.98482e-20
2.69339e-24
2.09483e-25
1.19363e-22
5.38725e-22
2.73338e-21
3.76957e-20
1.0153e-18
2.02277e-17
7.8693e-17
3.30986e-19
1.99757e-20
1.22422e-20
9.53725e-21
1.66979e-20
2.68763e-20
3.88962e-20
4.54114e-20
4.54537e-20
7.80214e-21
3.89753e-25
1.90909e-26
2.0079e-23
1.13065e-22
5.21052e-22
1.86444e-21
4.24247e-21
8.15963e-21
1.28788e-20
1.59899e-20
1.44758e-20
9.16457e-21
6.17517e-21
9.79081e-21
1.48676e-20
1.99218e-20
1.9197e-20
1.44162e-20
9.83828e-22
4.93974e-26
1.55409e-27
2.63306e-24
1.98456e-23
1.23192e-22
5.748e-22
1.85346e-21
4.36021e-21
7.7448e-21
1.02036e-20
9.21561e-21
5.74471e-21
3.17274e-21
4.73909e-21
6.88166e-21
8.71572e-21
6.89807e-21
3.76678e-21
9.97739e-23
5.61132e-27
1.14813e-28
1.56322e-25
2.22162e-24
2.127e-23
1.34939e-22
5.70291e-22
1.65547e-21
3.43545e-21
5.01867e-21
4.86833e-21
3.0749e-21
1.38099e-21
1.96531e-21
2.75156e-21
3.32149e-21
2.15052e-21
8.29802e-22
8.3424e-24
5.78778e-28
7.88605e-30
1.27064e-26
2.11546e-25
2.92823e-24
2.44807e-23
1.34852e-22
4.86728e-22
1.21238e-21
2.04004e-21
2.19977e-21
1.45005e-21
5.2626e-22
7.16304e-22
9.70073e-22
1.12034e-21
5.89147e-22
1.56778e-22
5.87804e-25
5.52223e-29
5.42805e-31
1.29713e-28
5.18036e-27
1.94538e-25
2.81786e-24
2.32252e-23
1.12177e-22
3.52451e-22
7.07571e-22
8.69787e-22
6.14556e-22
1.80098e-22
2.34634e-22
3.06938e-22
3.39459e-22
1.43579e-22
2.58251e-23
3.55784e-26
5.10302e-30
4.62464e-32
)
;

boundaryField
{
    leftWall
    {
        type            zeroGradient;
    }
    rightWall
    {
        type            zeroGradient;
    }
    lowerWall
    {
        type            zeroGradient;
    }
    atmosphere
    {
        type            inletOutlet;
        inletValue      uniform 0;
        value           nonuniform List<scalar> 
46
(
0
0
0
0
0
0
0
0
0
0
0
0
0
0
0
0
0
0
0
0
0
0
0
0
0
0
0
0
0
1.94538e-25
2.81786e-24
2.32252e-23
1.12177e-22
3.52451e-22
7.07571e-22
8.69787e-22
6.14556e-22
1.80098e-22
2.34634e-22
3.06938e-22
3.39459e-22
1.43579e-22
2.58251e-23
3.55784e-26
5.10302e-30
4.62464e-32
)
;
    }
    defaultFaces
    {
        type            empty;
    }
}


// ************************************************************************* //
