/*--------------------------------*- C++ -*----------------------------------*\
| =========                 |                                                 |
| \\      /  F ield         | foam-extend: Open Source CFD                    |
|  \\    /   O peration     | Version:     4.1                                |
|   \\  /    A nd           | Web:         http://www.foam-extend.org         |
|    \\/     M anipulation  |                                                 |
\*---------------------------------------------------------------------------*/
FoamFile
{
    version     2.0;
    format      ascii;
    class       volScalarField;
    location    "0.3";
    object      p;
}
// * * * * * * * * * * * * * * * * * * * * * * * * * * * * * * * * * * * * * //

dimensions      [1 -1 -2 0 0 0 0];

internalField   nonuniform List<scalar> 
2268
(
1321.87
1311.22
1297.67
1250.57
1225.43
1151.67
1102.79
1033.58
924.039
938.941
781.833
1065.3
930.067
1019.17
1017.85
1054.47
1097.97
1153.71
1185.09
1205.9
1285.99
1324.29
1367.42
1260.46
1249.81
1235.82
1189.2
1163.75
1089.53
1040.08
967.999
863.26
918.454
690.226
1005.9
881.649
962.192
958.66
991.771
1031.32
1084.44
1132.44
1138.46
1228.27
1261.17
1309.36
1196.14
1185.67
1171.24
1125.85
1099.87
1023.67
975.606
902.553
785.469
771.269
757.486
893.029
821.243
893.563
900.496
932.632
969.405
1014.25
1057.77
1072.62
1152.81
1184.43
1221.03
1129.67
1119.09
1103.49
1059.35
1031.32
956.197
903.635
819.336
730.235
818.2
678.43
831.611
776.594
828.549
838.67
861.332
904.632
947.316
998.621
1003.82
1091.09
1115.62
1135.32
1059.82
1049.68
1033.55
991.401
963.361
880.614
840.777
762.247
639.265
728.817
667.462
764.862
722.239
765.598
779.747
805.253
842.502
864.014
937.905
930.911
1022.51
1027.06
1033.55
988.577
977.933
960.022
916.922
886.389
816.501
744.056
667.033
656.261
683.27
623.539
694.337
667.059
705.589
718.416
739.049
777.823
801.839
863.14
859.341
955.294
955.056
917.065
913.346
903.562
884.688
847.022
817.017
720.608
713.294
586.816
608.107
615.393
583.578
634.105
615.488
642.918
658.748
669.74
712.01
697.717
825.632
770.705
905.892
866.963
741.671
837.505
826.287
806.565
758.794
730.155
673.838
589.931
568.028
557.368
562.98
534.058
568.523
554.407
577.59
593.463
604.045
646.654
640.664
729.57
692.851
835.106
707.117
644.078
238.013
238.367
237.979
237.886
238.07
238.092
238.253
238.314
238.424
238.447
238.457
238.527
238.295
238.394
237.771
237.853
236.927
236.902
236.689
237.941
238.263
237.966
237.696
237.956
237.968
238.192
238.277
238.379
238.399
238.421
238.499
238.249
238.394
237.683
237.696
236.879
236.828
236.617
237.845
237.864
237.74
237.367
237.685
237.961
238.109
238.226
238.342
238.356
238.378
238.399
238.208
238.395
237.561
237.711
236.805
236.741
236.53
237.73
238.701
237.492
236.891
237.357
237.703
238.044
238.229
238.331
238.322
238.407
238.396
238.189
238.358
237.34
237.529
236.706
236.636
236.43
237.333
228.509
234.626
235.874
236.827
237.579
237.974
238.168
238.328
238.314
238.327
238.518
238.028
238.304
237.559
237.277
236.641
236.516
236.312
230.48
231.964
235.65
235.174
236.985
237.189
237.938
238.234
238.349
238.172
238.61
238.344
238.124
238.216
237.28
237.248
236.549
236.389
236.184
197.238
235.54
237.145
235.781
236.919
236.813
237.928
238.309
238.375
238.342
238.501
238.517
238.201
238.189
237.319
237.115
236.439
236.244
236.037
231.718
239.799
237.144
235.39
236.522
236.1
237.858
238.46
238.424
238.055
238.54
238.381
238.184
238.081
237.2
236.985
236.326
236.089
235.876
712.05
703.548
676.449
660.806
622.465
485.64
561.929
452.286
487.911
465.981
456.816
471.531
473.682
473.43
499.525
491.569
552.475
537.33
696.585
526.991
862.727
334.128
481.807
535.596
524.409
506.446
439.287
458.951
408.712
394.2
371.389
356.532
350.367
327.204
327.151
315.698
326.949
328.846
326.186
358.885
268.432
631.31
126.419
377.044
93.3663
399.96
347.612
337.926
327.869
298.824
300.124
255.963
269.877
230.171
230.819
212
202.469
182.223
209.267
165.964
217.796
179.404
200.886
145.507
245.686
89.2649
300.006
95.2594
374.68
165.044
160.569
159.053
142.635
147.975
129.026
132.01
115.654
98.7074
89.5497
57.1284
32.4093
22.0531
77.7983
54.0099
38.6265
27.6714
18.5273
9.74497
29.1778
46.3921
52.7058
24.5889
34.1053
32.7933
35.0541
30.475
31.6359
29.8378
29.9618
22.9281
14.3763
7.54837
0.543176
-2.04235
-0.36896
5.51976
6.99573
4.9713
0.492234
5.72236
-1.41785
2.20827
-2.96025
7.34283
14.9271
-2.2871
-2.27243
-2.10759
-2.36762
-2.18342
-2.37772
-2.35047
-3.12096
-3.74572
-4.05715
-3.99682
-3.87736
-3.70831
-3.95598
-2.25448
-2.26332
-1.51821
-0.976117
-1.86982
-2.45136
-0.23137
-3.64116
-7.03026
-4.3904
-4.4068
-4.37237
-4.45261
-4.42787
-4.4598
-4.37495
-4.44723
-4.19525
-4.24666
-3.73766
-4.17964
-3.58892
-3.85364
-3.24036
-3.08396
-2.67636
-2.325
-2.59086
-2.94607
-3.53095
-3.84503
-4.04858
-4.66515
-4.66543
-4.6524
-4.65236
-4.63719
-4.67039
-4.64684
-4.65874
-4.64891
-4.58001
-4.65664
-4.56077
-4.30862
-3.95629
-3.59218
-3.37293
-3.26208
-3.56469
-2.72575
-3.90009
-3.33387
-4.17313
-2.7355
-4.84147
-4.8593
-4.8222
-4.85452
-4.81902
-4.82976
-4.75424
-4.74614
-4.41226
-4.78423
-4.23002
-4.57375
-4.29088
-4.33744
-3.99716
-4.10302
-3.97276
-3.5311
-4.3043
-4.55622
-3.58196
-6.14129
-7.07445
-5.05593
-5.05708
-5.03893
-5.03814
-5.02367
-5.00932
-5.01123
-4.99644
-4.97062
-4.77536
-4.92928
-4.7789
-4.66539
-4.33325
-4.55703
-3.88615
-4.50953
-4.27628
-4.88386
-4.1198
-4.6809
-4.95203
-4.5186
-5.24438
-5.28311
-5.21308
-5.24572
-5.21491
-5.2538
-5.20663
-5.04501
-5.02541
-4.96551
-4.84939
-4.826
-4.82448
-4.60557
-4.24541
-4.62784
-4.63796
-5.32407
-4.80413
-5.24043
-4.9683
-5.47568
-6.6661
-5.47524
-5.44458
-5.46829
-5.39717
-5.51423
-5.31363
-5.4391
-5.55167
-5.52206
-5.3179
-5.33081
-5.27359
-4.85384
-5.22056
-4.90598
-5.04449
-4.92866
-4.87162
-4.71572
-4.45041
-5.07871
-6.03366
-5.27497
-5.67879
-5.65973
-5.71921
-5.69095
-5.58609
-5.62567
-5.72745
-5.63434
-5.74638
-5.9695
-5.88824
-5.53413
-5.53275
-5.34466
-5.31727
-4.89354
-5.40671
-6.2111
-5.57562
-6.2285
-5.49139
-5.6154
-5.50038
-5.9113
-5.88594
-5.9381
-5.79979
-5.97588
-5.77278
-6.06387
-5.82748
-6.09211
-5.61933
-5.65233
-5.51116
-5.43312
-5.43779
-5.23944
-5.45537
-4.99984
-5.33502
-4.92061
-6.22309
-6.29106
-5.93972
-5.89145
-6.15322
-6.14005
-6.12942
-6.1413
-6.01478
-6.07641
-6.0322
-5.90978
-5.90153
-6.01718
-6.78509
-6.3515
-6.16595
-5.65754
-6.18153
-6.39303
-5.93308
-6.60305
-5.33293
-5.58393
-6.41305
-6.25852
-6.62
-6.28364
-6.29992
-6.29692
-6.33025
-6.38605
-6.30731
-6.2774
-6.19973
-6.08419
-5.72585
-5.79095
-6.15946
-6.01905
-6.24232
-6.10521
-5.88524
-6.00922
-6.28521
-5.79077
-6.17927
-6.6306
-6.91995
-7.00328
-6.93284
-6.87314
-6.74294
-6.85329
-6.57653
-6.73538
-6.60067
-6.4023
-6.37469
-6.56244
-6.49525
-6.48808
-6.39807
-6.26135
-6.14175
-6.06763
-6.06172
-6.89614
-6.49832
-6.42245
-6.93875
-7.33307
-8.40212
-6.29955
-6.44256
-6.82694
-6.42431
-7.01812
-6.32879
-6.56025
-6.63544
-6.54234
-6.70051
-6.3548
-6.52533
-6.46395
-6.6307
-6.08398
-6.28128
-5.61083
-5.82853
-5.79388
-7.24697
-7.67732
-7.10598
-9.20354
-7.9598
-8.02664
-6.83524
-8.06911
-7.25142
-7.85359
-7.36199
-6.65512
-6.78315
-6.93885
-7.20936
-6.94972
-7.28447
-6.37908
-6.54201
-6.81188
-6.67124
-6.83351
-7.11503
-6.79668
-8.30036
-9.87565
-8.33899
-7.58294
-7.66551
-8.24253
-7.6863
-7.59839
-7.45668
-7.46291
-7.78195
-7.04595
-7.11908
-6.89242
-6.72987
-6.50593
-7.28173
-8.25253
-7.416
-7.1359
-7.06557
-6.61152
-7.50315
-8.33733
-9.63173
-11.7192
-7.65066
-7.63011
-7.5528
-7.60204
-7.31843
-7.4113
-7.3668
-7.71996
-7.20613
-7.05541
-7.31715
-7.37538
-7.92541
-7.31334
-7.19791
-7.41262
-7.51679
-7.55391
-7.34638
-7.96224
-8.51473
-9.761
-11.0367
-7.38151
-7.47632
-7.60701
-7.42071
-7.88524
-7.35559
-7.84753
-7.05202
-7.44739
-8.23711
-7.26314
-7.42447
-7.39834
-7.6242
-7.49627
-7.58515
-7.06747
-7.22923
-7.36043
-7.19482
-8.87035
-10.2811
-11.6285
-7.77672
-7.5225
-7.22811
-7.70713
-6.56358
-7.52296
-6.71056
-7.09881
-7.60502
-7.43974
-7.61615
-7.39253
-7.62476
-7.83907
-7.83957
-8.14414
-7.69296
-8.59968
-9.93652
-8.65718
-9.13611
-9.60582
-10.9126
-6.59858
-7.18644
-7.3896
-6.41382
-6.93607
-6.56281
-7.0336
-6.93282
-6.84863
-7.21744
-7.27812
-7.28929
-7.05962
-7.3522
-6.2787
-7.27242
-7.94136
-7.98486
-8.2946
-8.5566
-9.07178
-9.37913
-8.89665
-6.87571
-6.47733
-6.59358
-7.18647
-7.32492
-7.31536
-7.32091
-7.98971
-8.4156
-7.80685
-7.81369
-7.59502
-7.79074
-8.13946
-7.80717
-7.89223
-7.73511
-8.0055
-8.49561
-8.69691
-8.76375
-9.8334
-14.2332
-7.31742
-7.45624
-7.28098
-6.90428
-6.71784
-6.77494
-8.06639
-7.71946
-7.60656
-7.52836
-7.44033
-7.31279
-7.13397
-6.23425
-7.34388
-6.78163
-9.42939
-8.26093
-8.79499
-9.46801
-12.0036
-10.1624
-11.8496
-7.11009
-6.68111
-7.19308
-8.05619
-8.53132
-8.61804
-8.44848
-7.93304
-7.89553
-7.7064
-7.63085
-7.49042
-7.48471
-7.3534
-7.47686
-7.58138
-7.77529
-8.22611
-8.45484
-8.93079
-9.12432
-8.82412
-10.0918
-8.7635
-8.9548
-8.90808
-8.4134
-8.03181
-7.91434
-7.83025
-7.75523
-7.65401
-7.58745
-7.49012
-7.39332
-7.32546
-7.23759
-7.21942
-7.61169
-8.62933
-7.56216
-8.95922
-9.1402
-9.16626
-11.7039
-11.8796
-7.91208
-7.93272
-7.91139
-7.96528
-8.01925
-7.86942
-7.84642
-7.73834
-7.67535
-7.61021
-7.52029
-7.51875
-7.49437
-7.47851
-7.4257
-7.96619
-5.85329
-9.531
-6.08421
-8.20208
-9.13442
-9.81481
-9.81215
-8.06657
-8.06896
-8.02201
-7.91955
-7.76997
-7.73944
-7.647
-7.61874
-7.54334
-7.49191
-7.43258
-7.30818
-7.21098
-6.75675
-7.17501
-7.6581
-7.42074
-8.87485
-6.52693
-9.70408
-7.01083
-9.73061
-9.17993
-7.74039
-7.73485
-7.69576
-7.72935
-7.58597
-7.60853
-7.53832
-7.52051
-7.46694
-7.49652
-7.4061
-7.65383
-7.42672
-8.57443
-7.45145
-7.52099
-7.40426
-6.45278
-8.63842
-8.32658
-8.90657
-7.57835
-8.32429
-7.64408
-7.62713
-7.60032
-7.51847
-7.48448
-7.46007
-7.41492
-7.39118
-7.34421
-7.33944
-7.26899
-7.32545
-7.18771
-7.35506
-7.24317
-7.33295
-7.27147
-7.37983
-7.73336
-8.35843
-7.83976
-8.57025
-8.11645
-7.45135
-7.43869
-7.41777
-7.37586
-7.35557
-7.32399
-7.30021
-7.27807
-7.24389
-7.25559
-7.20153
-7.27633
-7.16407
-7.31772
-7.12383
-7.14288
-7.04659
-6.9559
-7.34005
-6.19555
-5.8507
-7.64927
-6.51569
-7.30669
-7.2994
-7.28666
-7.25464
-7.23588
-7.20534
-7.1836
-7.16054
-7.13005
-7.11934
-7.08149
-7.0904
-7.02547
-7.06259
-6.95757
-6.98629
-6.794
-7.14048
-5.7881
-8.16341
-6.90158
-7.67272
-7.12127
-7.14221
-7.14015
-7.12692
-7.11248
-7.09678
-7.0712
-7.05267
-7.02945
-7.00387
-6.99216
-6.95536
-6.96243
-6.90552
-6.92662
-6.85823
-6.83768
-6.7628
-6.77802
-6.60778
-6.64059
-6.69921
-7.74191
-7.52301
-6.99907
-6.99871
-6.99156
-6.98329
-6.9694
-6.95438
-6.93394
-6.91778
-6.89092
-6.87821
-6.84311
-6.83771
-6.78733
-6.79374
-6.7395
-6.69622
-6.64574
-6.67492
-6.59499
-6.87292
-7.32298
-6.43458
-6.70784
-6.87993
-6.87382
-6.87354
-6.8625
-6.85305
-6.83993
-6.82172
-6.80827
-6.78329
-6.77106
-6.73967
-6.73452
-6.69754
-6.70893
-6.67694
-6.6355
-6.64695
-6.60642
-6.697
-6.83885
-6.8317
-6.77021
-6.58297
-6.77433
-6.76858
-6.76864
-6.76045
-6.75405
-6.74507
-6.72934
-6.71762
-6.69303
-6.67899
-6.64028
-6.62992
-6.56768
-6.58758
-6.55315
-6.476
-6.49732
-6.39078
-6.51818
-5.87826
-6.48463
-6.21212
-6.81521
-6.67474
-6.67141
-6.66851
-6.66274
-6.65714
-6.65033
-6.64036
-6.63285
-6.6202
-6.61195
-6.59496
-6.58365
-6.54655
-6.54444
-6.47778
-6.41625
-6.4268
-6.33124
-6.38967
-6.31581
-6.46983
-6.48958
-6.69285
-6.42434
-6.42136
-6.41837
-6.41433
-6.40956
-6.40456
-6.39751
-6.3916
-6.38282
-6.37779
-6.37399
-6.38027
-6.42079
-6.43869
-6.45726
-6.37279
-6.43745
-6.33135
-6.31146
-6.16697
-6.04977
-6.06853
-5.70826
-6.86445
-6.86351
-6.86122
-6.85892
-6.85487
-6.8524
-6.84892
-6.84791
-6.84476
-6.84531
-6.83048
-6.81012
-6.7288
-6.53118
-6.08057
-5.82768
-5.7666
-5.78574
-5.81883
-5.99804
-6.17952
-6.70947
-6.04622
-5.35075
-5.35062
-5.35067
-5.35117
-5.35103
-5.35138
-5.35094
-5.35127
-5.35531
-5.36956
-5.40662
-5.51211
-5.72841
-6.35007
-7.0072
-7.47388
-7.4591
-7.3922
-7.12353
-6.9645
-6.1729
-6.00022
-6.23739
538.769
-218.274
244.257
179.506
97.3954
184.134
438.452
254.18
268.654
227.65
178.775
304.38
142.272
111.788
161.691
211.768
21.1149
21.2117
27.786
35.552
0.882869
-0.452436
-0.0266855
-1.5636
-3.28462
-2.83731
-2.73988
-2.08649
-4.51856
-3.77152
-4.26726
-5.23638
-5.0102
-5.32483
-5.77679
-5.89459
-4.76575
-5.02418
-5.19025
-5.35889
-5.36768
-5.92793
-5.8593
-5.87396
-5.74989
-5.90646
-6.25867
-6.48843
-6.61309
-6.68378
-7.02705
-7.29533
-6.77562
-6.79742
-6.91231
-7.10592
-6.89163
-6.87297
-7.31321
-6.99205
-7.82531
-8.81364
-7.6557
-8.10889
-7.19379
-7.58782
-7.52616
-8.76826
-7.58484
-7.89369
-7.9958
-7.73394
-8.68406
-9.17189
-9.36137
-9.94036
-10.294
-11.0853
-12.3237
-13.8874
-14.0668
-14.1573
-16.5544
-15.3815
-14.8516
-16.3414
-17.8581
-19.2917
-12.561
-13.3938
-14.4355
-13.7094
-10.3749
-11.6325
-13.7175
-14.1973
-13.783
-14.0956
-13.5143
-15.0442
-12.7546
-14.2796
-15.0139
-14.1125
-11.0757
-11.4481
-11.4595
-11.3964
-11.406
-11.4372
-11.3782
-11.2278
-9.94822
-9.89769
-9.93848
-9.93309
-9.37324
-9.41369
-9.46901
-9.479
-8.3606
-8.43438
-8.46482
-8.51388
-8.03462
-7.99396
-8.01046
-7.98332
-7.34362
-7.33645
-7.32542
-7.26398
-6.45858
-6.43554
-6.88373
-6.89103
-7.57628
-7.25215
-6.61861
-6.30276
-6.96682
-6.78435
-6.75599
-6.62749
-7.01196
-7.11184
-6.64067
-6.47295
-6.77439
-6.57368
-6.35479
-6.56243
-6.27525
-6.63769
-6.36783
-6.31946
-6.43304
-5.98649
-6.33326
-5.86473
-5.83137
-5.91597
-5.78525
-6.01711
-6.17682
-6.112
-6.09746
-5.90792
223.359
240.485
236.915
234.468
235.178
234.823
238.201
238.685
238.707
237.263
238.58
238.469
238.658
237.597
237.255
236.78
236.125
235.825
235.598
527.516
167.904
182.118
213.789
228.997
225.783
234.348
236.811
240.635
242.088
238.976
239.269
238.634
237.453
237.095
236.52
235.78
235.404
235.149
201.156
758.869
-456.23
-395.114
325.992
174.802
357.436
222.423
246.373
208.053
239.724
238.135
238.727
237.198
236.952
236.289
235.351
234.896
234.587
168.075
244.864
5.39841
335.423
316.61
117.783
353.411
258.675
738.281
311.882
194.723
236.299
239.071
237.611
236.726
236.048
234.787
234.268
233.9
40.8549
377.862
-273.815
-328.741
538.018
226.014
453.804
375.523
500.048
1274.91
-105.535
238.497
234.013
233.909
236.645
235.582
233.862
233.474
233.034
14.8046
-13.7802
3.70613
10.6626
-3.05512
-423.779
722.993
430.93
416.877
1588.18
-451.909
209.672
416.952
200.77
235.133
235.854
232.407
232.389
231.933
-4.6603
-8.36149
-5.99679
-7.74602
1.34693
0.893433
34.2819
-24.7891
370.108
479.539
187.375
313.605
1540.91
-230.945
227.313
234.342
230.712
230.875
230.614
-6.9724
-7.88875
-7.10259
-6.45665
-8.40035
-11.7512
-7.52741
-6.54869
8.60854
48.7928
269.382
179.664
1808.2
-453.767
238.624
226.812
228.551
229.127
228.886
-6.62272
-6.06351
-6.39096
-7.63507
-7.56279
-6.61836
-4.6809
-3.60512
-2.15253
0.487866
172.48
-122.882
855.396
6.22986
231.324
227.248
227.327
227.534
227.081
-5.71694
-6.68709
-6.71134
-6.63668
-6.57933
-6.49069
-6.01861
-4.25913
-4.07215
-3.57023
12.7116
11.7421
407.462
223.566
236.39
228.313
226.596
226.297
225.166
-6.29808
-5.08942
-8.06763
-7.24685
-7.30112
-6.73976
-6.0758
-4.61373
-4.27277
-4.87339
6.96238
46.263
292.095
197.94
224.889
226.633
226.239
224.589
222.53
-6.9718
-8.77621
-6.3477
-6.71604
-6.9016
-6.95154
-6.41123
-6.04595
-4.28957
-6.58688
-5.17803
-17.7295
131.187
180.554
225.204
228.716
225.174
222.597
218.847
-8.63799
-6.72692
-7.20676
-9.29522
-8.17307
-7.82479
-6.46521
-6.38646
-6.03371
-5.03627
-7.86711
10.2887
74.902
257.682
195.137
222.707
224.004
220.816
212.061
-7.73624
-7.63454
-8.31982
-6.40845
-10.1571
-10.7295
-6.04678
-7.38525
-7.40236
-6.81269
-9.9346
-8.19234
-0.0694279
55.3446
193.477
294.493
211.249
213.06
196.508
-8.10522
-9.39227
-9.56644
-13.7149
-8.17025
-8.10991
-7.0225
-8.31694
-7.76654
-8.27614
-9.88637
-8.10055
-6.64919
3.9237
87.9253
142.314
163.339
184.26
150.443
-6.77812
-9.19405
-11.7107
-9.70768
-12.4312
-7.73306
-7.4305
-10.6581
-10.3955
-9.23492
-8.45298
-8.62503
-8.76301
-8.62204
-9.17246
71.7872
79.4817
91.7214
80.8655
-8.53115
-11.6681
-12.3688
-16.0657
-8.82946
-9.3644
-9.79762
-9.32632
-6.25007
-9.22911
-7.52418
-8.0881
-9.72601
-18.7052
21.3753
-13.3006
-8.08283
-24.2848
20.8714
-9.00984
-10.5892
-14.2858
-15.0966
-14.2997
-10.2074
-11.0574
-10.0723
-7.80269
-9.13525
-9.62283
-11.2327
-79.7884
112.99
-2.84151
-22.6735
-37.2887
-71.672
-12.1821
-10.4536
-11.2803
-12.3812
-15.7168
-14.6942
-11.5904
-10.9956
-10.4578
-9.33641
-9.51163
-7.13913
-9.86469
37.8449
-15.9721
-27.9977
-32.2118
-39.7477
-56.5728
-31.7394
-14.4252
-12.2639
-16.0349
-15.4911
-13.7285
-13.6118
-13.3021
-11.6202
-10.2572
-9.75766
-13.9295
-3.01834
-18.0528
-18.5739
-25.4446
-32.8132
-40.253
-49.7189
-46.2717
-15.664
-17.3569
-15.6722
-15.0305
-13.8788
-12.6379
-12.5179
-11.4122
-11.2364
-10.8261
-13.1163
-8.15352
-16.5914
-15.6141
-21.7505
-29.7803
-31.6984
-37.8605
-31.7937
-16.9057
-18.2208
-18.6204
-16.2864
-14.259
-14.9173
-14.7033
-12.4389
-10.5906
-8.67626
-10.8699
-9.13812
-17.9236
-15.0161
-17.855
-23.4991
-19.3577
-17.3124
-9.24521
-14.4868
-15.5111
-16.4588
-15.0954
-16.5772
-14.7106
-13.3492
-17.9214
-13.4838
-12.5995
-11.2086
-9.48465
-21.2001
-16.4144
-9.69947
-12.38
-11.3025
-3.32791
0.944295
-14.6538
-10.6229
-13.5208
-12.3865
-13.4998
-14.564
-15.8025
-16.9666
-17.8468
-22.2673
-14.6784
-14.1538
-16.5137
-11.4014
-7.73405
-3.69397
-1.99484
3.95323
5.31508
-14.2886
-10.5522
-12.1268
-11.4623
-15.4692
-16.0341
-17.1936
-18.551
-19.3062
-25.5447
-30.0578
-17.5654
-18.9638
-7.18897
-5.81757
3.12023
4.07453
6.73301
7.00103
-11.9762
-9.43765
-9.99536
-10.9119
-11.2837
-16.0625
-18.3708
-20.3112
-20.1913
-19.8965
-28.8063
-27.6979
-33.8725
-2.62744
-1.06456
4.97471
5.50127
7.34151
7.30993
-10.6909
-10.7306
-9.19932
-10.6423
-14.2366
-19.7566
-18.3068
-19.8229
-19.5947
-19.8964
-21.9505
-23.7402
-31.2511
-5.68737
4.23111
7.14935
7.38774
7.70962
7.57951
-11.0484
-10.3667
-9.29424
-10.1757
-12.108
-13.8284
-17.3338
-16.974
-18.1101
-18.089
-21.439
-10.2565
-32.0557
2.53129
9.48394
7.96803
7.49107
7.583
7.64391
-9.90311
-9.27004
-9.88036
-9.36028
-10.6175
-13.2435
-15.5439
-16.689
-17.3805
-17.6456
-36.4082
-50.2135
-12.2105
7.85633
7.31284
7.64645
7.26914
7.49326
7.37653
-9.57854
-9.36706
-10.5244
-8.90559
-8.59066
-10.8405
-13.0178
-14.4026
-5.69002
-86.625
-58.3333
-1.31414
6.98836
5.66906
6.93108
7.10989
6.93947
7.23566
7.17799
-8.59089
-8.1957
-8.20072
-5.81997
-7.72283
-7.98124
-11.0509
7.26723
13.769
-23.9191
-3.09113
12.5745
4.72966
5.34985
5.87879
6.80297
6.60955
7.01493
6.97626
-8.14878
-7.8544
-8.4917
-6.62518
-6.51383
0.772838
-9.90359
1.12068
3.10158
2.88543
-1.59728
0.964632
5.35466
3.6743
6.91302
6.03277
5.9421
6.5189
6.64228
-7.39008
-7.04446
-7.45148
-6.44962
-4.49969
-8.40252
-2.65266
-5.3238
-3.90581
-3.14185
-3.68278
-2.17726
1.16685
3.36819
2.80718
7.0924
5.18299
8.12117
6.2466
-6.90599
-6.64586
-6.75035
-6.01882
-6.24998
-6.7048
-6.17806
-4.90703
-4.10079
-3.60265
-2.60731
-1.74796
-1.21816
-0.717366
0.675629
1.71863
2.84012
2.91834
6.38541
-6.45816
-6.20215
-6.20255
-5.76972
-5.54165
-6.01114
-5.34233
-4.91946
-4.06113
-3.71886
-3.08706
-2.07099
-1.04965
-0.078927
0.714625
1.80792
4.36883
1.0601
0.165378
-6.5801
-6.13679
-6.00608
-5.65542
-5.48364
-5.50724
-5.18018
-4.8288
-4.25877
-3.78983
-3.26212
-2.69246
-2.07961
-1.4301
-0.955305
-1.26031
-1.00662
-0.686819
-0.378435
-6.26319
-5.90521
-5.73077
-5.45249
-5.26384
-5.16238
-4.85586
-4.56118
-4.24096
-3.88478
-3.44139
-2.99998
-2.6018
-2.13759
-1.66372
-1.55406
-1.15709
-1.26986
-1.11033
-6.18332
-5.933
-5.67612
-5.46811
-5.29837
-5.19845
-5.00183
-4.80217
-4.5481
-4.29625
-4.01471
-3.67916
-3.35884
-3.0323
-2.76664
-2.6398
-2.57624
-2.33621
-2.45735
-6.09332
-5.63693
-5.58463
-5.36046
-5.25207
-5.12908
-4.98755
-4.85004
-4.69202
-4.52148
-4.34168
-4.13142
-3.9573
-3.74663
-3.57052
-3.4895
-3.3999
-3.33326
-3.29757
-5.71093
-5.75104
-5.59535
-5.52918
-5.46259
-5.42804
-5.37558
-5.32462
-5.26013
-5.1751
-5.08451
-4.95774
-4.8656
-4.75549
-4.6687
-4.61524
-4.57269
-4.53181
-4.53838
-5.91909
-5.71049
-5.63701
-5.51768
-5.43595
-5.35852
-5.27516
-5.19519
-5.12443
-5.07198
-5.03865
-4.99199
-4.95683
-4.92988
-4.90175
-4.88494
-4.8859
-4.84718
-4.85052
-5.83306
-5.70587
-5.77243
-5.78069
-5.9229
-6.08711
-6.31031
-6.53142
-6.73306
-6.93456
-7.11806
-7.28295
-7.42794
-7.56483
-7.63155
-7.70869
-7.78666
-7.81043
-7.7989
)
;

boundaryField
{
    leftWall
    {
        type            calculated;
        value           nonuniform List<scalar> 
50
(
1321.87
1260.46
1196.14
1129.67
1059.82
988.577
913.346
837.505
712.05
535.596
347.612
165.044
34.1053
-2.2871
-4.3904
-4.66515
-4.84147
-5.05593
-5.24438
-5.47524
-5.67879
-5.9113
-6.15322
-6.28364
-6.93284
-6.29955
-7.9598
-7.58294
-7.65066
-7.38151
-7.77672
-6.59858
-6.87571
-7.31742
-7.11009
-8.7635
-7.91208
-8.06657
-7.74039
-7.64408
-7.45135
-7.30669
-7.14221
-6.99907
-6.87993
-6.77433
-6.67474
-6.42434
-6.86445
-5.35075
)
;
    }
    rightWall
    {
        type            calculated;
        value           nonuniform List<scalar> 
50
(
236.689
236.617
236.53
236.43
236.312
236.184
236.037
235.876
235.598
235.149
234.587
233.9
233.034
231.933
230.614
228.886
227.081
225.166
222.53
218.847
212.061
196.508
150.443
80.8655
20.8714
-12.1821
-31.7394
-46.2717
-31.7937
-9.24521
0.944295
5.31508
7.00103
7.30993
7.57951
7.64391
7.37653
7.17799
6.97626
6.64228
6.2466
6.38541
0.165378
-0.378435
-1.11033
-2.45735
-3.29757
-4.53838
-4.85052
-7.7989
)
;
    }
    lowerWall
    {
        type            calculated;
        value           nonuniform List<scalar> 
62
(
1351.3
1340.65
1327.1
1280
1254.86
1181.1
1132.22
1063.01
953.468
968.371
811.263
1094.73
959.497
1048.6
1047.28
1083.9
1127.4
1183.14
1214.51
1235.33
1315.42
1353.71
1396.83
1367.42
1309.36
1221.03
1135.32
1033.55
917.065
741.671
644.078
601.074
-155.838
306.83
242.094
238.013
237.941
237.845
237.73
237.333
230.48
197.238
231.718
238.043
238.397
238.009
237.915
238.1
238.121
238.283
238.344
238.453
238.476
238.486
238.556
238.324
238.423
237.8
237.883
236.957
236.932
236.719
)
;
    }
    atmosphere
    {
        type            calculated;
        value           nonuniform List<scalar> 
46
(
-6.18732
-6.18991
-6.1894
-6.18875
-6.18751
-6.18625
-6.18452
-6.18333
-6.18236
-6.18565
-6.19069
-6.20855
-6.22995
-6.31278
-6.38318
-6.41769
-6.39679
-6.3589
-6.25996
-6.19749
-6.07358
-6.11036
-5.9845
-5.89547
-5.86665
-5.83334
-5.81841
-5.77092
-5.72922
-5.72904
-5.72904
-5.72904
-5.72904
-5.72904
-5.72904
-5.72904
-5.72904
-5.72904
-5.72904
-5.72904
-5.72904
-5.72904
-5.72904
-5.72904
-5.72904
-5.72904
)
;
    }
    defaultFaces
    {
        type            empty;
    }
}


// ************************************************************************* //
