/*--------------------------------*- C++ -*----------------------------------*\
| =========                 |                                                 |
| \\      /  F ield         | foam-extend: Open Source CFD                    |
|  \\    /   O peration     | Version:     4.1                                |
|   \\  /    A nd           | Web:         http://www.foam-extend.org         |
|    \\/     M anipulation  |                                                 |
\*---------------------------------------------------------------------------*/
FoamFile
{
    version     2.0;
    format      ascii;
    class       volVectorField;
    location    "0.3";
    object      U_0;
}
// * * * * * * * * * * * * * * * * * * * * * * * * * * * * * * * * * * * * * //

dimensions      [0 1 -1 0 0 0 0];

internalField   nonuniform List<vector> 
2268
(
(0.0440387 -0.00660991 0)
(0.0628688 -0.00611667 0)
(0.14605 -0.00857356 0)
(0.199824 -0.00383819 0)
(0.234301 -0.00827992 0)
(0.31669 -0.00648454 0)
(0.346006 -0.00651135 0)
(0.451623 -0.00860354 0)
(0.463925 -0.00220636 0)
(0.528444 -0.0371836 0)
(0.453504 -0.0385801 0)
(0.397599 -0.00120238 0)
(0.477988 -0.00236732 0)
(0.474138 -6.23137e-05 0)
(0.482867 0.00100362 0)
(0.48065 0.0025283 0)
(0.47491 0.00613652 0)
(0.463078 0.00101299 0)
(0.451264 0.00396176 0)
(0.412849 0.00995729 0)
(0.335491 0.0301618 0)
(0.228417 0.0150962 0)
(0.11493 0.0476526 0)
(0.0438475 -0.0190106 0)
(0.0638738 -0.0181223 0)
(0.148576 -0.0246853 0)
(0.198652 -0.0166731 0)
(0.235293 -0.0205395 0)
(0.321092 -0.01962 0)
(0.351561 -0.0261335 0)
(0.457157 -0.0210828 0)
(0.454617 -0.0134154 0)
(0.543155 0.0371778 0)
(0.439496 -0.12503 0)
(0.392927 -0.0230196 0)
(0.470216 -0.0195916 0)
(0.466697 -0.00658199 0)
(0.477909 -0.00368844 0)
(0.475761 -0.00170985 0)
(0.467302 0.00699993 0)
(0.448839 0.0157737 0)
(0.438288 0.0208569 0)
(0.409525 0.0458549 0)
(0.329069 0.0558427 0)
(0.229629 0.0908991 0)
(0.0785074 0.115826 0)
(0.0423036 -0.0324916 0)
(0.0642458 -0.0310446 0)
(0.149534 -0.0412478 0)
(0.193352 -0.0238959 0)
(0.238331 -0.0382597 0)
(0.326935 -0.0337607 0)
(0.355626 -0.0393329 0)
(0.443486 -0.0336183 0)
(0.499759 -0.0222518 0)
(0.480869 -0.0558395 0)
(0.414477 -0.151418 0)
(0.400945 -0.0453386 0)
(0.460765 -0.0294955 0)
(0.454626 -0.00987896 0)
(0.458586 -0.00196071 0)
(0.451348 0.00864555 0)
(0.4406 0.0110276 0)
(0.423775 0.0297725 0)
(0.415464 0.0579731 0)
(0.380981 0.0651162 0)
(0.333804 0.109455 0)
(0.229564 0.133822 0)
(0.130313 0.189219 0)
(0.0401642 -0.0444582 0)
(0.0654719 -0.0436018 0)
(0.150622 -0.0560749 0)
(0.186597 -0.0374572 0)
(0.259474 -0.0536682 0)
(0.324075 -0.0466026 0)
(0.354066 -0.0555091 0)
(0.460417 -0.0598263 0)
(0.398508 -0.0542821 0)
(0.388536 -0.124393 0)
(0.385216 -0.10685 0)
(0.35397 -0.042537 0)
(0.392135 -0.0361823 0)
(0.38765 -0.0097972 0)
(0.397107 -0.00276177 0)
(0.394648 0.0115786 0)
(0.391325 0.0194623 0)
(0.374051 0.040205 0)
(0.377751 0.0614505 0)
(0.349696 0.0863898 0)
(0.290811 0.127774 0)
(0.239394 0.190663 0)
(0.0945424 0.287256 0)
(0.0363792 -0.0579685 0)
(0.0660398 -0.0573968 0)
(0.148703 -0.0705023 0)
(0.186552 -0.0490945 0)
(0.264921 -0.0712348 0)
(0.31293 -0.057008 0)
(0.351687 -0.0702623 0)
(0.451174 -0.0399239 0)
(0.355792 -0.152268 0)
(0.329248 -0.0854011 0)
(0.32794 -0.106456 0)
(0.320883 -0.060329 0)
(0.360975 -0.0426713 0)
(0.355104 -0.0165344 0)
(0.375512 -0.0050993 0)
(0.376732 0.00573796 0)
(0.389648 0.0214937 0)
(0.374801 0.0401884 0)
(0.360509 0.0763829 0)
(0.341159 0.108514 0)
(0.275879 0.157522 0)
(0.246413 0.224039 0)
(0.154467 0.346413 0)
(0.0316291 -0.0687755 0)
(0.0688457 -0.0703216 0)
(0.150156 -0.0854031 0)
(0.185071 -0.0654841 0)
(0.256053 -0.086106 0)
(0.305993 -0.0638206 0)
(0.373633 -0.096943 0)
(0.33114 -0.0679025 0)
(0.283082 -0.161272 0)
(0.303421 -0.103949 0)
(0.312248 -0.10304 0)
(0.314799 -0.0657062 0)
(0.350407 -0.0486662 0)
(0.352167 -0.018688 0)
(0.381498 -0.0137168 0)
(0.383149 0.00303331 0)
(0.395568 0.0201001 0)
(0.385616 0.0750428 0)
(0.377617 0.0814257 0)
(0.357728 0.131586 0)
(0.283961 0.169189 0)
(0.270452 0.253807 0)
(0.138604 0.4812 0)
(0.0261591 -0.0823466 0)
(0.0727549 -0.0856632 0)
(0.146579 -0.0984697 0)
(0.176407 -0.0725228 0)
(0.246277 -0.0991377 0)
(0.298015 -0.0918759 0)
(0.305631 -0.0641148 0)
(0.286057 -0.158017 0)
(0.263997 -0.150721 0)
(0.294201 -0.108311 0)
(0.302697 -0.103633 0)
(0.325998 -0.0815748 0)
(0.354702 -0.0567314 0)
(0.375352 -0.0324778 0)
(0.405411 -0.0196552 0)
(0.400619 -0.000484402 0)
(0.422763 0.0203662 0)
(0.400771 0.0521758 0)
(0.389153 0.103766 0)
(0.383817 0.153655 0)
(0.307184 0.200434 0)
(0.358177 0.296616 0)
(0.237845 0.532595 0)
(0.024891 -0.0920107 0)
(0.0791621 -0.0990499 0)
(0.142534 -0.110725 0)
(0.169285 -0.0929299 0)
(0.233209 -0.12067 0)
(0.291133 -0.0663179 0)
(0.246704 -0.115289 0)
(0.253469 -0.172036 0)
(0.260373 -0.163242 0)
(0.294543 -0.121972 0)
(0.30988 -0.115508 0)
(0.345261 -0.0948611 0)
(0.37284 -0.0719035 0)
(0.402334 -0.0427448 0)
(0.418122 -0.0257091 0)
(0.41517 -0.00208719 0)
(0.421826 0.017134 0)
(0.431754 0.0384964 0)
(0.422192 0.0687002 0)
(0.404214 0.185092 0)
(0.367449 0.17398 0)
(0.385914 0.42423 0)
(0.238417 0.640883 0)
(-0.116442 -0.0202681 0)
(0.204953 -0.0536855 0)
(0.584132 -0.0313848 0)
(0.471566 0.0636642 0)
(0.236145 0.0756835 0)
(0.121392 0.0580837 0)
(0.0738267 4.69624e-05 0)
(0.099517 -0.00913271 0)
(0.115845 -0.0176098 0)
(0.177895 -0.0170872 0)
(0.207693 -0.0285061 0)
(0.320112 -0.036897 0)
(0.352249 -0.0145306 0)
(0.471055 -0.0637901 0)
(0.51716 -0.0321069 0)
(0.598178 0.0738356 0)
(0.604677 0.020938 0)
(0.320202 0.024595 0)
(0.130707 0.0241539 0)
(-0.077897 0.00467706 0)
(0.271159 -0.266486 0)
(0.640269 -0.0601871 0)
(0.51393 0.226221 0)
(0.252285 0.204173 0)
(0.10059 0.070246 0)
(0.0533354 0.0106047 0)
(0.0998342 -0.0163693 0)
(0.118697 -0.0509 0)
(0.18349 -0.058818 0)
(0.218348 -0.0802296 0)
(0.337994 -0.0282147 0)
(0.359528 -0.0336107 0)
(0.506751 -0.112604 0)
(0.578769 0.0056169 0)
(0.637774 0.100331 0)
(0.611386 0.0567105 0)
(0.334094 0.0727083 0)
(0.136657 0.0766002 0)
(-0.00538765 -0.113975 0)
(0.264679 -0.49926 0)
(0.61747 -0.159877 0)
(0.525895 0.401786 0)
(0.180933 0.384174 0)
(0.040642 0.122461 0)
(0.0411418 -0.0115205 0)
(0.0815037 -0.0278974 0)
(0.10034 -0.0916606 0)
(0.176078 -0.100336 0)
(0.230848 -0.153095 0)
(0.363641 -0.120498 0)
(0.342095 -0.0675653 0)
(0.535329 -0.0976689 0)
(0.639081 0.1859 0)
(0.628908 0.0860201 0)
(0.623631 0.097429 0)
(0.344572 0.123421 0)
(0.138778 0.128432 0)
(0.148774 -0.218023 0)
(0.193974 -0.370858 0)
(0.32988 -0.157453 0)
(0.542118 0.627886 0)
(0.0321086 0.691396 0)
(-0.117187 0.186348 0)
(-0.0132755 -0.0212737 0)
(0.0681162 -0.0299144 0)
(0.0793793 -0.131434 0)
(0.161765 -0.165904 0)
(0.21414 -0.216749 0)
(0.385044 -0.250858 0)
(0.356242 -0.0806591 0)
(0.577206 -0.0247361 0)
(0.690023 -0.0195671 0)
(0.620543 0.154824 0)
(0.634385 0.131167 0)
(0.373426 0.172747 0)
(0.142521 0.184574 0)
(0.392514 -0.0662107 0)
(0.147242 -0.779764 0)
(0.0302258 -0.461863 0)
(0.295508 0.850188 0)
(-0.208146 0.622874 0)
(-0.29563 0.214022 0)
(-0.049342 -0.0652813 0)
(0.0300348 -0.0962021 0)
(0.0366237 -0.175003 0)
(0.141029 -0.19811 0)
(0.21791 -0.36499 0)
(0.415705 -0.219271 0)
(0.438334 -0.170873 0)
(0.503567 -0.0367402 0)
(0.721863 -0.00728345 0)
(0.701597 0.22442 0)
(0.630184 0.172109 0)
(0.367579 0.225598 0)
(0.142468 0.241982 0)
(0.194698 -0.472102 0)
(0.0953501 -0.866655 0)
(-0.00966309 -0.598552 0)
(-0.137326 0.866335 0)
(-0.660567 0.270454 0)
(-0.294531 0.204763 0)
(-0.159275 -0.160882 0)
(0.00943473 -0.177092 0)
(0.0231741 -0.227481 0)
(0.0857904 -0.343114 0)
(0.226143 -0.34635 0)
(0.488066 -0.197166 0)
(0.462622 -0.244151 0)
(0.660512 -0.151648 0)
(0.809842 0.152215 0)
(0.708067 0.203618 0)
(0.63543 0.207635 0)
(0.376085 0.275868 0)
(0.144432 0.298288 0)
(0.188537 -0.717757 0)
(0.0493334 -0.743758 0)
(-0.434793 -0.266156 0)
(-0.364035 0.527531 0)
(-0.812549 0.417549 0)
(-0.37924 0.24325 0)
(-0.246098 -0.23004 0)
(-0.0238288 -0.19112 0)
(-0.0434066 -0.255375 0)
(0.122317 -0.23746 0)
(0.266557 -0.274516 0)
(0.478366 -0.262768 0)
(0.50529 -0.241757 0)
(0.653703 -0.118306 0)
(0.861343 0.0705591 0)
(0.745714 0.222187 0)
(0.655852 0.252747 0)
(0.387185 0.327962 0)
(0.147572 0.355953 0)
(0.262558 -0.538978 0)
(0.194338 -0.570518 0)
(0.220799 -0.0706943 0)
(-0.450309 0.677437 0)
(-0.805801 0.849535 0)
(-0.572967 0.230519 0)
(-0.343863 -0.409579 0)
(-0.0252119 -0.236479 0)
(-0.000390344 -0.31934 0)
(0.129734 -0.186076 0)
(0.248311 -0.385194 0)
(0.431011 -0.302465 0)
(0.611339 -0.373507 0)
(0.711836 -0.00941276 0)
(0.91266 0.0876715 0)
(0.8068 0.241693 0)
(0.689085 0.296021 0)
(0.404824 0.385042 0)
(0.153058 0.418204 0)
(0.025945 -0.116264 0)
(0.0733567 -0.121619 0)
(0.129161 -0.127771 0)
(0.152108 -0.0865795 0)
(0.246059 -0.128932 0)
(0.208303 -0.134152 0)
(0.209925 -0.170869 0)
(0.252204 -0.174476 0)
(0.257991 -0.168254 0)
(0.295685 -0.143996 0)
(0.330513 -0.128656 0)
(0.372716 -0.122329 0)
(0.404623 -0.0845476 0)
(0.424713 -0.0606192 0)
(0.437434 -0.0237282 0)
(0.435246 -0.00106612 0)
(0.454688 0.00894511 0)
(0.437002 0.0644337 0)
(0.480028 0.0217511 0)
(0.422215 0.195115 0)
(0.478205 0.247946 0)
(0.667125 0.537268 0)
(0.456265 0.713834 0)
(0.0356344 -0.133523 0)
(0.0554703 -0.144616 0)
(0.145265 -0.143386 0)
(0.128946 -0.161431 0)
(0.14328 -0.152841 0)
(0.185921 -0.201164 0)
(0.211057 -0.170675 0)
(0.227696 -0.199739 0)
(0.270473 -0.212107 0)
(0.319006 -0.184499 0)
(0.364107 -0.18899 0)
(0.421503 -0.161115 0)
(0.456819 -0.123678 0)
(0.467939 -0.0667557 0)
(0.458287 -0.0432841 0)
(0.442876 -0.0106916 0)
(0.49196 0.0310745 0)
(0.416288 0.100801 0)
(0.502764 0.145765 0)
(0.637146 0.218847 0)
(0.723436 0.362995 0)
(0.686897 0.435649 0)
(0.721864 0.467823 0)
(0.0219695 -0.163029 0)
(0.046222 -0.177427 0)
(0.0898134 -0.167983 0)
(0.114314 -0.208976 0)
(0.148515 -0.190564 0)
(0.168286 -0.204876 0)
(0.198822 -0.207834 0)
(0.231071 -0.240713 0)
(0.27715 -0.258718 0)
(0.326838 -0.240819 0)
(0.380748 -0.228429 0)
(0.459053 -0.21603 0)
(0.524508 -0.123698 0)
(0.50373 -0.0647359 0)
(0.485427 -0.0283738 0)
(0.496083 -0.0231947 0)
(0.522318 0.0109926 0)
(0.498201 0.0303586 0)
(0.55716 0.205832 0)
(0.579929 0.148919 0)
(0.649177 0.240779 0)
(0.668331 0.197302 0)
(0.684984 0.277094 0)
(0.0239417 -0.202403 0)
(0.0464833 -0.211935 0)
(0.0896741 -0.211861 0)
(0.108418 -0.218893 0)
(0.137036 -0.210587 0)
(0.160308 -0.242724 0)
(0.188558 -0.238719 0)
(0.211549 -0.271534 0)
(0.257194 -0.311244 0)
(0.318753 -0.286705 0)
(0.407233 -0.326741 0)
(0.560077 -0.306219 0)
(0.58174 -0.186771 0)
(0.548744 -0.0852162 0)
(0.538014 -0.0395472 0)
(0.534627 -0.0425621 0)
(0.537543 0.0117407 0)
(0.59772 0.0720612 0)
(0.570988 0.274255 0)
(0.553898 0.157094 0)
(0.58504 0.206096 0)
(0.654428 0.130962 0)
(0.652811 0.161788 0)
(0.0204745 -0.234154 0)
(0.0443291 -0.243152 0)
(0.0735364 -0.231306 0)
(0.105732 -0.252844 0)
(0.127894 -0.245844 0)
(0.146719 -0.255197 0)
(0.169567 -0.261028 0)
(0.185149 -0.312299 0)
(0.234323 -0.365495 0)
(0.306881 -0.395995 0)
(0.492823 -0.472031 0)
(0.569003 -0.389799 0)
(0.619456 -0.353974 0)
(0.616231 0.00994487 0)
(0.623111 0.0358351 0)
(0.65038 -0.013961 0)
(0.66509 -0.0498845 0)
(0.745616 0.0883548 0)
(0.649408 0.0768015 0)
(0.688701 0.131108 0)
(0.65498 0.152146 0)
(0.65783 0.113225 0)
(0.716205 0.0688239 0)
(0.0313758 -0.267268 0)
(0.0350907 -0.263405 0)
(0.0874563 -0.274607 0)
(0.109453 -0.270691 0)
(0.119412 -0.253752 0)
(0.14048 -0.28274 0)
(0.16484 -0.275882 0)
(0.188472 -0.334186 0)
(0.209688 -0.437231 0)
(0.292159 -0.546276 0)
(0.406244 -0.596876 0)
(0.382639 -0.425618 0)
(0.471603 -0.314623 0)
(0.619086 -0.0553114 0)
(0.630323 -0.0625339 0)
(0.710108 -0.107932 0)
(0.835549 -0.097599 0)
(1.045 0.535572 0)
(1.2755 0.324082 0)
(0.995862 0.360452 0)
(1.19633 -0.323559 0)
(1.30399 0.0429283 0)
(0.927373 0.0639113 0)
(0.0119823 -0.300278 0)
(0.0278626 -0.297974 0)
(0.0623415 -0.303846 0)
(0.0993621 -0.283072 0)
(0.167638 -0.279244 0)
(0.169068 -0.303242 0)
(0.198124 -0.309311 0)
(0.197954 -0.355211 0)
(0.285791 -0.466844 0)
(0.238541 -0.591491 0)
(0.32789 -0.530149 0)
(0.363145 -0.454297 0)
(0.295733 -0.256198 0)
(0.447013 -0.258214 0)
(0.542755 -0.0735847 0)
(0.671085 -0.206766 0)
(0.942162 -0.285948 0)
(1.10505 -0.022882 0)
(1.47861 0.0634801 0)
(1.79112 0.156535 0)
(2.01063 0.627134 0)
(2.08237 0.586642 0)
(1.95195 -0.176658 0)
(0.0282015 -0.315611 0)
(0.00796229 -0.31387 0)
(0.0810415 -0.358293 0)
(0.14315 -0.369279 0)
(0.215235 -0.321793 0)
(0.222859 -0.312355 0)
(0.2848 -0.32546 0)
(0.291086 -0.415034 0)
(0.383566 -0.534526 0)
(0.359212 -0.55785 0)
(0.396953 -0.580146 0)
(0.384212 -0.652466 0)
(0.265327 -0.558853 0)
(0.253108 -0.449203 0)
(0.418872 -0.325356 0)
(0.644635 -0.488202 0)
(0.783323 -0.520167 0)
(0.920394 -0.590835 0)
(1.17506 -0.506691 0)
(1.41996 -0.146149 0)
(1.77344 -0.0443193 0)
(1.75546 0.180389 0)
(1.86164 0.641488 0)
(0.00582716 -0.330471 0)
(0.0255501 -0.349646 0)
(0.063935 -0.438512 0)
(0.127359 -0.420767 0)
(0.179899 -0.36244 0)
(0.192894 -0.366542 0)
(0.267299 -0.370603 0)
(0.242365 -0.452792 0)
(0.346101 -0.470935 0)
(0.28924 -0.599383 0)
(0.362307 -0.659387 0)
(0.435145 -0.689868 0)
(0.390485 -0.662289 0)
(0.418409 -0.575537 0)
(0.490482 -0.470621 0)
(0.61117 -0.601321 0)
(0.635008 -0.609771 0)
(0.766291 -0.628765 0)
(0.977685 -0.415465 0)
(0.872513 -0.372017 0)
(1.16038 -0.0556859 0)
(2.3245 0.25526 0)
(2.07222 0.549875 0)
(1.75015e-05 -0.350402 0)
(0.0643841 -0.367168 0)
(0.0831384 -0.470615 0)
(0.14168 -0.478236 0)
(0.171508 -0.392141 0)
(0.191649 -0.389883 0)
(0.247039 -0.389859 0)
(0.280054 -0.472491 0)
(0.260139 -0.408249 0)
(0.285133 -0.496967 0)
(0.409112 -0.578541 0)
(0.315607 -0.630045 0)
(0.284697 -0.653193 0)
(0.349684 -0.55195 0)
(0.38789 -0.581755 0)
(0.587206 -0.559522 0)
(0.722297 -0.64575 0)
(0.762965 -0.42373 0)
(0.55092 -0.569145 0)
(0.575454 -0.511515 0)
(0.835204 -0.0904456 0)
(1.11748 -0.0802486 0)
(1.19378 -0.0287745 0)
(-0.00330205 -0.39322 0)
(0.0775016 -0.435918 0)
(0.0996908 -0.511602 0)
(0.153617 -0.511276 0)
(0.176977 -0.413353 0)
(0.193492 -0.452294 0)
(0.262778 -0.451605 0)
(0.247447 -0.437581 0)
(0.272016 -0.404549 0)
(0.285638 -0.444603 0)
(0.338255 -0.576317 0)
(0.284679 -0.60734 0)
(0.332439 -0.664894 0)
(0.278809 -0.486556 0)
(0.444326 -0.548481 0)
(0.67967 -0.467877 0)
(0.706491 -0.644287 0)
(0.623936 -0.630044 0)
(0.483298 -0.722418 0)
(0.538663 -0.612671 0)
(0.656489 -0.507028 0)
(1.30184 -0.252766 0)
(1.22147 -0.254313 0)
(-0.0181359 -0.433272 0)
(0.093205 -0.456607 0)
(0.109884 -0.56351 0)
(0.125149 -0.5459 0)
(0.140173 -0.452512 0)
(0.213201 -0.458007 0)
(0.380772 -0.438523 0)
(0.308856 -0.529743 0)
(0.296898 -0.47772 0)
(0.378328 -0.557989 0)
(0.308115 -0.620938 0)
(0.140294 -0.663361 0)
(0.304186 -0.607376 0)
(0.359472 -0.670869 0)
(0.354678 -0.554846 0)
(0.485304 -0.651388 0)
(0.584705 -0.682578 0)
(0.574901 -0.617733 0)
(0.487448 -0.578517 0)
(0.595445 -0.412003 0)
(1.15708 -0.39989 0)
(1.19621 -0.374907 0)
(1.16176 -0.694928 0)
(0.0193315 -0.46381 0)
(0.0896924 -0.468892 0)
(0.0996933 -0.639893 0)
(0.0973938 -0.58228 0)
(0.160299 -0.451432 0)
(0.292495 -0.44472 0)
(0.256552 -0.497057 0)
(0.191378 -0.650441 0)
(0.369541 -0.677991 0)
(0.345759 -0.837373 0)
(0.200041 -0.822695 0)
(0.194928 -0.775201 0)
(0.25704 -0.650063 0)
(0.277032 -0.766581 0)
(0.311099 -0.701605 0)
(0.453017 -0.629273 0)
(0.71526 -0.771104 0)
(0.622462 -0.730696 0)
(0.640106 -0.812671 0)
(0.794957 -0.717208 0)
(0.822096 -0.397327 0)
(0.990565 -0.621118 0)
(1.18181 -0.518757 0)
(0.0218509 -0.488973 0)
(0.0437875 -0.498753 0)
(0.0762224 -0.669357 0)
(0.124976 -0.588406 0)
(0.181383 -0.463407 0)
(0.221501 -0.48949 0)
(0.240365 -0.604853 0)
(0.163373 -0.667248 0)
(0.185285 -0.811019 0)
(0.258189 -0.895964 0)
(0.386553 -0.721521 0)
(0.25684 -0.716412 0)
(0.122634 -0.658389 0)
(0.277973 -0.74299 0)
(0.429689 -0.630689 0)
(0.412261 -0.598745 0)
(0.462154 -0.700451 0)
(0.402528 -0.825794 0)
(0.631649 -0.903937 0)
(1.04776 -0.986856 0)
(1.07009 -0.700987 0)
(1.13609 -0.767366 0)
(1.35007 -0.630012 0)
(0.0318543 -0.529398 0)
(0.0309102 -0.533646 0)
(0.104354 -0.699559 0)
(0.0991826 -0.583185 0)
(0.14919 -0.444707 0)
(0.160182 -0.508692 0)
(0.127866 -0.597159 0)
(0.088949 -0.643215 0)
(0.173732 -0.701216 0)
(0.486472 -0.789949 0)
(0.522733 -0.924679 0)
(0.260912 -0.900865 0)
(0.0386539 -0.77484 0)
(0.331618 -0.71406 0)
(0.454136 -0.871352 0)
(0.425173 -1.05726 0)
(0.504667 -0.94511 0)
(0.362323 -0.986762 0)
(0.425729 -0.847832 0)
(0.907813 -0.876767 0)
(1.1892 -0.905441 0)
(1.44661 -0.87652 0)
(1.66754 -0.721132 0)
(0.0323614 -0.539444 0)
(-0.000821853 -0.56403 0)
(0.0800158 -0.726353 0)
(0.134942 -0.601624 0)
(0.119543 -0.411061 0)
(0.103508 -0.610013 0)
(0.119862 -0.55152 0)
(0.0859637 -0.612431 0)
(0.125998 -0.616476 0)
(0.225476 -0.629861 0)
(0.386864 -0.9013 0)
(0.35035 -0.957583 0)
(0.278423 -0.905299 0)
(0.333609 -0.881609 0)
(0.257578 -1.02239 0)
(0.420503 -1.15566 0)
(0.489391 -1.103 0)
(0.546635 -1.19559 0)
(0.716203 -1.03948 0)
(1.00683 -0.817229 0)
(1.26369 -0.919244 0)
(1.55444 -1.03997 0)
(1.70849 -0.795311 0)
(0.0312958 -0.629769 0)
(-0.00783067 -0.636795 0)
(0.0722432 -0.761015 0)
(0.110637 -0.647629 0)
(0.0575269 -0.401405 0)
(0.0867517 -0.665468 0)
(0.0890388 -0.585054 0)
(0.073016 -0.642574 0)
(0.280317 -0.657056 0)
(0.314005 -0.624439 0)
(0.277053 -0.667322 0)
(0.270072 -0.814479 0)
(0.233029 -0.853011 0)
(0.268257 -0.918281 0)
(0.267684 -0.9698 0)
(0.310114 -0.773892 0)
(0.488719 -1.05135 0)
(0.65582 -1.25331 0)
(0.703228 -1.18044 0)
(0.993941 -1.0756 0)
(1.30003 -1.1763 0)
(1.64799 -1.14794 0)
(1.38875 -1.0118 0)
(0.0595808 -0.440238 0)
(0.0445928 -0.497594 0)
(0.0703314 -0.771495 0)
(0.158597 -0.467625 0)
(0.0123835 -0.50959 0)
(0.0185917 -0.533017 0)
(0.0888506 -0.494869 0)
(0.0738451 -0.650328 0)
(0.244752 -0.725956 0)
(0.284522 -0.836828 0)
(0.235661 -0.746613 0)
(0.299407 -0.825877 0)
(0.318972 -0.863317 0)
(0.315234 -0.944189 0)
(0.39168 -0.764049 0)
(0.275381 -0.687592 0)
(0.296103 -0.89701 0)
(0.463773 -1.14283 0)
(0.798464 -1.11633 0)
(1.09066 -1.23186 0)
(1.44147 -1.31231 0)
(1.56872 -1.07765 0)
(1.49233 -1.49136 0)
(0.0191174 -0.891315 0)
(-0.199361 -0.900894 0)
(0.0498996 -0.701696 0)
(-0.0080565 -0.94227 0)
(-0.00583561 -0.854956 0)
(0.198182 -0.95253 0)
(-0.15116 -0.688998 0)
(-0.0280956 -0.597733 0)
(0.148695 -0.787974 0)
(0.328153 -0.863545 0)
(0.252031 -0.879133 0)
(0.253341 -0.956194 0)
(0.270894 -1.02275 0)
(0.471444 -0.866132 0)
(0.505847 -0.689706 0)
(0.354258 -0.920994 0)
(0.336894 -1.03716 0)
(0.457209 -1.07421 0)
(0.553367 -1.19227 0)
(0.902853 -1.2976 0)
(1.61344 -1.44625 0)
(1.46215 -1.60954 0)
(1.48767 -1.79058 0)
(0.0189177 -1.19944 0)
(0.206419 -1.2652 0)
(0.0244269 -1.19995 0)
(-0.155355 -1.21162 0)
(0.0280874 -1.08576 0)
(0.0865202 -1.22267 0)
(0.273295 -1.06922 0)
(0.14932 -1.07381 0)
(0.0524779 -0.857381 0)
(0.227249 -0.907642 0)
(0.152569 -0.960713 0)
(0.215102 -0.926567 0)
(0.481725 -0.870038 0)
(0.685157 -0.920081 0)
(0.36232 -1.25544 0)
(0.129858 -1.18429 0)
(0.316602 -1.28864 0)
(0.3721 -1.26604 0)
(0.589406 -1.29881 0)
(0.941679 -1.32064 0)
(1.21455 -1.58178 0)
(1.54708 -1.93767 0)
(1.93864 -2.44687 0)
(-0.0141547 -1.19676 0)
(0.0329905 -1.25296 0)
(0.0136719 -1.36294 0)
(-0.012689 -1.1486 0)
(0.0364268 -1.17968 0)
(0.134799 -1.16424 0)
(0.0661893 -1.19903 0)
(0.120751 -1.3351 0)
(0.289722 -0.993968 0)
(0.285145 -0.885906 0)
(0.207163 -0.949324 0)
(0.413264 -0.98385 0)
(0.330875 -1.12202 0)
(0.119747 -1.20015 0)
(0.263857 -1.42258 0)
(0.364074 -1.28696 0)
(0.40616 -1.35869 0)
(0.49803 -1.32835 0)
(0.586189 -1.21578 0)
(0.650211 -1.55083 0)
(1.08729 -1.7246 0)
(1.02275 -2.10543 0)
(1.87945 -2.89727 0)
(-0.0165559 -1.20291 0)
(0.0597528 -1.26278 0)
(0.0240383 -1.2629 0)
(0.0227322 -1.2061 0)
(0.0460873 -1.3403 0)
(0.121461 -1.2268 0)
(-0.034169 -1.35462 0)
(0.250082 -1.03179 0)
(0.43784 -0.980675 0)
(0.236151 -1.22591 0)
(-0.0498833 -1.09412 0)
(0.210878 -1.24068 0)
(0.378784 -1.36586 0)
(0.24343 -1.2827 0)
(0.240068 -1.31382 0)
(0.273118 -1.33412 0)
(0.410151 -1.30886 0)
(0.563942 -1.24887 0)
(0.43741 -1.25389 0)
(0.467499 -1.45096 0)
(0.783169 -1.82262 0)
(0.782141 -2.33483 0)
(1.16349 -2.97744 0)
(-0.0538135 -1.35521 0)
(-0.00275817 -1.29379 0)
(-0.0297304 -1.24881 0)
(-0.148832 -1.34773 0)
(0.0420529 -0.974337 0)
(0.158387 -1.29173 0)
(0.150218 -1.01528 0)
(0.40484 -0.85861 0)
(0.168033 -1.02779 0)
(0.165561 -1.35074 0)
(0.124341 -1.19914 0)
(0.126628 -1.23019 0)
(0.262932 -1.28606 0)
(0.0918915 -1.46391 0)
(0.212515 -1.55818 0)
(0.445756 -1.54833 0)
(0.547916 -1.32323 0)
(0.584583 -1.47928 0)
(0.467696 -1.79192 0)
(0.261001 -1.64038 0)
(0.475888 -1.88869 0)
(0.378288 -2.25976 0)
(0.669458 -2.93343 0)
(0.105044 -0.952791 0)
(0.207095 -1.28014 0)
(-0.113648 -1.25409 0)
(0.122491 -0.895876 0)
(0.113255 -0.758194 0)
(0.170399 -0.878337 0)
(0.302193 -0.749918 0)
(0.232838 -0.702972 0)
(0.0941463 -0.860916 0)
(0.106545 -1.03364 0)
(0.0417136 -1.15362 0)
(0.0453708 -1.20048 0)
(0.0613624 -1.24792 0)
(-0.0536972 -1.41808 0)
(0.109666 -1.24701 0)
(0.561601 -1.47571 0)
(0.533669 -1.40597 0)
(0.177682 -1.60224 0)
(0.39681 -1.96136 0)
(0.384331 -1.77412 0)
(0.41967 -1.89979 0)
(0.243581 -2.16853 0)
(0.467725 -2.59652 0)
(-0.130036 -0.661354 0)
(-0.0910453 -0.80666 0)
(0.202117 -0.909786 0)
(0.244551 -0.716332 0)
(0.108128 -0.819232 0)
(0.213328 -0.730917 0)
(0.308396 -0.726928 0)
(0.285917 -0.990814 0)
(-0.134064 -1.13521 0)
(-0.170427 -1.12467 0)
(-0.056983 -1.21658 0)
(-0.017348 -1.26287 0)
(-0.0338245 -1.3459 0)
(0.0944725 -1.57799 0)
(0.101796 -1.20716 0)
(0.310007 -1.44754 0)
(0.462969 -1.34288 0)
(0.0641553 -1.46234 0)
(0.360309 -1.72656 0)
(0.349979 -1.70335 0)
(0.36498 -1.76711 0)
(0.249706 -2.26694 0)
(0.0138217 -3.11347 0)
(-0.017637 -0.697491 0)
(0.0355542 -0.700687 0)
(0.0206795 -0.723923 0)
(0.0505555 -0.6258 0)
(0.0691876 -0.616731 0)
(0.293472 -0.680371 0)
(-0.0188122 -1.13097 0)
(-0.179667 -1.23936 0)
(-0.085429 -1.343 0)
(-0.0701487 -1.24097 0)
(-0.0596449 -1.26365 0)
(-0.0827288 -1.261 0)
(-0.268563 -1.30679 0)
(0.026191 -1.18456 0)
(0.156849 -1.36412 0)
(0.434294 -1.25974 0)
(0.5277 -1.71083 0)
(-0.104202 -1.53471 0)
(0.339158 -1.87301 0)
(0.393639 -1.8141 0)
(0.124754 -2.26253 0)
(-0.377447 -2.33373 0)
(-0.296505 -3.32963 0)
(-0.0781735 -0.60658 0)
(0.0515246 -0.641309 0)
(0.19695 -0.768796 0)
(0.258149 -0.916533 0)
(0.0247373 -1.09076 0)
(-0.207153 -1.13357 0)
(-0.253396 -1.33179 0)
(-0.112638 -1.24268 0)
(-0.0801072 -1.2338 0)
(-0.0892487 -1.22541 0)
(-0.070251 -1.24009 0)
(-0.0590783 -1.23077 0)
(-0.0818121 -1.21942 0)
(-0.0344747 -1.03231 0)
(0.066375 -1.27727 0)
(0.00371214 -1.12204 0)
(0.232163 -1.88109 0)
(-0.00286441 -1.53533 0)
(0.120809 -1.90158 0)
(-0.0230321 -1.83516 0)
(0.0390677 -2.38656 0)
(-0.357864 -2.11031 0)
(-0.817935 -2.45618 0)
(0.0446882 -1.19197 0)
(0.0334992 -1.20591 0)
(-0.209755 -1.24496 0)
(-0.25475 -1.30986 0)
(-0.147726 -1.37309 0)
(-0.115116 -1.4436 0)
(-0.0894941 -1.3273 0)
(-0.0766755 -1.26777 0)
(-0.0769845 -1.28013 0)
(-0.0778082 -1.26187 0)
(-0.0680932 -1.26971 0)
(-0.080298 -1.24471 0)
(-0.074676 -1.28516 0)
(-0.0645039 -1.18509 0)
(0.0156484 -1.28107 0)
(-0.0868514 -1.34926 0)
(0.119755 -1.80645 0)
(-0.0715604 -1.34834 0)
(0.0835643 -2.03405 0)
(-0.0624305 -1.82231 0)
(0.127163 -1.95935 0)
(-0.413963 -2.38938 0)
(-1.20509 -2.47796 0)
(-0.00342484 -1.39882 0)
(-0.00942289 -1.45642 0)
(-0.0485423 -1.48722 0)
(-0.0751771 -1.37374 0)
(-0.0807455 -1.33861 0)
(-0.0862436 -1.29837 0)
(-0.0777506 -1.27969 0)
(-0.0818037 -1.27655 0)
(-0.0663628 -1.27047 0)
(-0.0788343 -1.26653 0)
(-0.0532764 -1.25941 0)
(-0.0846962 -1.24677 0)
(-0.0369307 -1.29142 0)
(-0.0814244 -1.16383 0)
(-0.0742395 -1.29176 0)
(-0.344973 -1.34646 0)
(0.272213 -1.33638 0)
(-0.165053 -1.79332 0)
(-0.311016 -1.50133 0)
(-0.0158839 -1.70444 0)
(-0.436572 -2.1172 0)
(-0.549335 -2.50434 0)
(-1.10319 -2.54509 0)
(-0.00734178 -1.29881 0)
(-0.0198802 -1.32782 0)
(-0.0624173 -1.33119 0)
(-0.111787 -1.32323 0)
(-0.0780794 -1.33229 0)
(-0.0549873 -1.30232 0)
(-0.0713867 -1.29681 0)
(-0.0646678 -1.28801 0)
(-0.0591936 -1.27775 0)
(-0.0608947 -1.27437 0)
(-0.0482773 -1.2641 0)
(-0.122464 -1.23276 0)
(0.0234569 -1.24904 0)
(-0.104019 -1.02804 0)
(-0.163849 -1.23827 0)
(-0.144841 -1.35584 0)
(-0.13655 -1.08008 0)
(-0.178115 -2.1156 0)
(0.0553267 -1.07679 0)
(-0.488753 -1.74588 0)
(-0.698416 -1.62209 0)
(-0.526635 -1.9444 0)
(-1.11379 -1.98477 0)
(-0.008462 -1.32976 0)
(-0.021853 -1.35403 0)
(-0.0452198 -1.34403 0)
(-0.0707467 -1.34537 0)
(-0.05744 -1.28564 0)
(-0.0454043 -1.30198 0)
(-0.0573909 -1.28462 0)
(-0.0586288 -1.2878 0)
(-0.0524179 -1.28146 0)
(-0.0577441 -1.29163 0)
(-0.0121753 -1.29636 0)
(-0.100047 -1.32195 0)
(0.202404 -1.26905 0)
(-0.141852 -1.38142 0)
(-0.332377 -1.24522 0)
(-0.213391 -1.31354 0)
(-0.356156 -1.32287 0)
(0.0529236 -1.46663 0)
(0.0492932 -1.65355 0)
(-0.505468 -1.93579 0)
(-0.757849 -1.5546 0)
(-0.864427 -1.5625 0)
(-0.878043 -1.80119 0)
(-0.00926805 -1.30705 0)
(-0.0220169 -1.32356 0)
(-0.0523258 -1.31886 0)
(-0.0493506 -1.30506 0)
(-0.0413304 -1.28441 0)
(-0.0492503 -1.29191 0)
(-0.0525122 -1.28799 0)
(-0.0602278 -1.28997 0)
(-0.0618966 -1.29071 0)
(-0.0725176 -1.30419 0)
(-0.0655643 -1.3097 0)
(-0.101941 -1.35757 0)
(-0.0762348 -1.32548 0)
(-0.143813 -1.53656 0)
(-0.182491 -1.25848 0)
(-0.188539 -1.26132 0)
(-0.230951 -1.28034 0)
(-0.266242 -1.22613 0)
(-0.267859 -1.82942 0)
(-0.441597 -1.7331 0)
(-0.422787 -1.8248 0)
(-0.716213 -1.32292 0)
(-1.16175 -1.54984 0)
(-0.00572781 -1.29603 0)
(-0.013997 -1.31185 0)
(-0.0258501 -1.31536 0)
(-0.0372589 -1.28788 0)
(-0.0407334 -1.28859 0)
(-0.0464342 -1.28416 0)
(-0.050257 -1.28396 0)
(-0.0591607 -1.28193 0)
(-0.0632467 -1.2831 0)
(-0.0785127 -1.28599 0)
(-0.0771619 -1.28284 0)
(-0.110893 -1.29695 0)
(-0.095377 -1.27932 0)
(-0.165494 -1.28495 0)
(-0.195291 -1.19667 0)
(-0.232143 -1.21837 0)
(-0.269027 -1.19977 0)
(-0.35982 -1.26737 0)
(-0.515331 -1.50259 0)
(-0.517408 -1.19993 0)
(-0.202624 -1.21408 0)
(-0.573284 -1.38039 0)
(-1.04622 -1.24223 0)
(-0.00505865 -1.27184 0)
(-0.0114094 -1.29074 0)
(-0.0224233 -1.28676 0)
(-0.0298855 -1.28218 0)
(-0.0348975 -1.28032 0)
(-0.044214 -1.27506 0)
(-0.0483006 -1.27038 0)
(-0.0577107 -1.26865 0)
(-0.0628279 -1.26732 0)
(-0.0776883 -1.26778 0)
(-0.0838367 -1.27583 0)
(-0.108095 -1.28473 0)
(-0.114284 -1.27047 0)
(-0.150641 -1.27126 0)
(-0.152853 -1.17461 0)
(-0.20516 -1.1638 0)
(-0.203365 -1.12626 0)
(-0.420032 -1.14439 0)
(-0.157665 -1.14993 0)
(-0.228048 -1.09268 0)
(-0.489616 -0.99931 0)
(-0.473378 -1.29352 0)
(-1.16054 -1.11428 0)
(-0.000711274 -1.25535 0)
(-0.0101864 -1.27127 0)
(-0.0155968 -1.27316 0)
(-0.0233686 -1.26517 0)
(-0.029193 -1.26356 0)
(-0.0378448 -1.25758 0)
(-0.0433318 -1.25562 0)
(-0.0516918 -1.2504 0)
(-0.0582352 -1.24652 0)
(-0.0706168 -1.24114 0)
(-0.0768425 -1.23548 0)
(-0.104697 -1.23303 0)
(-0.107374 -1.22217 0)
(-0.148888 -1.20427 0)
(-0.147164 -1.14474 0)
(-0.187188 -1.1404 0)
(-0.18832 -1.08158 0)
(-0.247264 -1.08325 0)
(-0.298816 -0.933594 0)
(-0.316386 -1.21436 0)
(-0.435507 -1.01052 0)
(-0.551716 -1.34138 0)
(-0.45657 -1.10897 0)
(-0.00340517 -1.23946 0)
(-0.00581217 -1.25595 0)
(-0.014961 -1.25332 0)
(-0.0179285 -1.25573 0)
(-0.0242646 -1.25092 0)
(-0.0285056 -1.24941 0)
(-0.0340089 -1.24279 0)
(-0.041158 -1.23905 0)
(-0.046097 -1.23268 0)
(-0.0586578 -1.22673 0)
(-0.0621623 -1.21818 0)
(-0.0847601 -1.213 0)
(-0.0857187 -1.19781 0)
(-0.121361 -1.18074 0)
(-0.112943 -1.1306 0)
(-0.161998 -1.10842 0)
(-0.16463 -1.0585 0)
(-0.20948 -1.025 0)
(-0.207959 -0.980422 0)
(-0.180959 -1.03016 0)
(-0.578011 -0.944203 0)
(-0.542057 -0.858655 0)
(-0.329118 -0.752272 0)
(-0.000197315 -1.23749 0)
(-0.00824115 -1.25234 0)
(-0.00912921 -1.24989 0)
(-0.0170392 -1.24549 0)
(-0.0176978 -1.24319 0)
(-0.0247961 -1.23697 0)
(-0.0269252 -1.23156 0)
(-0.0349644 -1.22331 0)
(-0.0371505 -1.21391 0)
(-0.0496377 -1.20504 0)
(-0.0505432 -1.1904 0)
(-0.0732911 -1.18081 0)
(-0.0725627 -1.16096 0)
(-0.109851 -1.14595 0)
(-0.0947083 -1.10855 0)
(-0.146572 -1.08855 0)
(-0.153023 -1.04865 0)
(-0.182947 -1.01706 0)
(-0.234843 -0.994572 0)
(-0.234327 -1.20941 0)
(-0.288037 -1.09174 0)
(-0.286774 -0.737045 0)
(-0.258349 -0.676933 0)
(-0.00307053 -1.23569 0)
(-0.00402141 -1.24583 0)
(-0.0110699 -1.24436 0)
(-0.0125186 -1.24063 0)
(-0.0176317 -1.23638 0)
(-0.0193446 -1.23201 0)
(-0.0232176 -1.2251 0)
(-0.0261625 -1.21874 0)
(-0.0280591 -1.20723 0)
(-0.0340512 -1.19713 0)
(-0.0335128 -1.17597 0)
(-0.0477601 -1.1619 0)
(-0.042185 -1.12807 0)
(-0.0768429 -1.12617 0)
(-0.0535938 -1.08734 0)
(-0.1204 -1.04426 0)
(-0.13392 -1.00199 0)
(-0.178769 -0.944243 0)
(-0.288886 -0.926741 0)
(-0.228613 -0.833896 0)
(-0.119147 -0.883402 0)
(-0.184712 -0.757205 0)
(-0.323793 -0.798699 0)
(-0.000423746 -1.22557 0)
(-0.00376526 -1.23403 0)
(-0.00648633 -1.23224 0)
(-0.00988612 -1.22919 0)
(-0.0119854 -1.22513 0)
(-0.0148661 -1.22073 0)
(-0.0161049 -1.21495 0)
(-0.0182768 -1.20849 0)
(-0.018178 -1.19811 0)
(-0.0194472 -1.18747 0)
(-0.0172314 -1.16943 0)
(-0.0158307 -1.15436 0)
(-0.0125956 -1.11977 0)
(-0.0364109 -1.12167 0)
(-0.00597004 -1.06295 0)
(-0.0881075 -1.02369 0)
(-0.0948963 -0.983842 0)
(-0.13738 -0.913315 0)
(-0.16098 -0.87537 0)
(-0.190422 -0.72228 0)
(-0.181425 -0.76981 0)
(-0.244316 -0.68426 0)
(-0.296156 -0.912203 0)
(-9.48146e-05 -1.19343 0)
(-0.00173767 -1.20003 0)
(-0.00399904 -1.1981 0)
(-0.0052653 -1.19619 0)
(-0.00657062 -1.19274 0)
(-0.00703398 -1.18975 0)
(-0.00705879 -1.18509 0)
(-0.0067859 -1.17973 0)
(-0.00495574 -1.17128 0)
(-0.002789 -1.16277 0)
(0.00257393 -1.14973 0)
(0.0100189 -1.13439 0)
(0.0156539 -1.11419 0)
(0.0353571 -1.07533 0)
(0.0502806 -1.06057 0)
(-0.0644393 -0.98479 0)
(-0.0732056 -0.972542 0)
(-0.128666 -0.904514 0)
(-0.149535 -0.855966 0)
(-0.19532 -0.767208 0)
(-0.153205 -0.697544 0)
(-0.251621 -0.600122 0)
(-0.119272 -0.66865 0)
(4.23875e-05 -1.2905 0)
(-0.000744542 -1.29543 0)
(-0.00204492 -1.29408 0)
(-0.0027217 -1.29303 0)
(-0.00335474 -1.29061 0)
(-0.00351516 -1.28843 0)