/*--------------------------------*- C++ -*----------------------------------*\
| =========                 |                                                 |
| \\      /  F ield         | foam-extend: Open Source CFD                    |
|  \\    /   O peration     | Version:     4.1                                |
|   \\  /    A nd           | Web:         http://www.foam-extend.org         |
|    \\/     M anipulation  |                                                 |
\*---------------------------------------------------------------------------*/
FoamFile
{
    version     2.0;
    format      ascii;
    class       volScalarField;
    location    "1";
    object      alpha1;
}
// * * * * * * * * * * * * * * * * * * * * * * * * * * * * * * * * * * * * * //

dimensions      [0 0 0 0 0 0 0];

internalField   nonuniform List<scalar> 
2268
(
0.993588
0.991897
0.989362
0.988112
0.988585
0.98976
0.991201
0.992114
0.992564
0.993066
0.993708
0.994639
0.996636
0.998023
0.999509
1
1
0.999747
1
1
1
1
1
0.991652
0.989982
0.987515
0.986384
0.987141
0.988527
0.990234
0.991284
0.991832
0.992432
0.99285
0.993153
0.9943
0.994235
0.9957
0.997054
0.996511
0.99624
0.998432
1
1
1
1
0.987459
0.985819
0.983529
0.982609
0.984047
0.985877
0.988081
0.98931
0.990016
0.990638
0.990174
0.988379
0.986274
0.982308
0.984154
0.985817
0.985767
0.987462
0.993385
0.999087
1
1
1
0.981174
0.97965
0.977583
0.97696
0.979526
0.982043
0.984697
0.985838
0.986378
0.986571
0.984011
0.977486
0.967096
0.95563
0.957741
0.960548
0.964255
0.972104
0.984443
0.994981
1
1
1
0.972964
0.971695
0.969838
0.969676
0.973638
0.976977
0.979494
0.979952
0.979222
0.977729
0.971364
0.954949
0.928561
0.903374
0.902832
0.910415
0.925895
0.947047
0.968763
0.987624
0.996312
1
1
0.963016
0.962103
0.960397
0.960833
0.966292
0.970207
0.971603
0.96973
0.965642
0.959357
0.947006
0.913169
0.859698
0.812255
0.804924
0.825756
0.863848
0.905989
0.941746
0.973284
0.986528
0.998492
1
0.95154
0.950968
0.94925
0.950316
0.95697
0.960623
0.95951
0.952004
0.940128
0.924585
0.903332
0.842116
0.757615
0.687751
0.671424
0.708263
0.772405
0.842301
0.89514
0.94443
0.965423
0.986307
1
0.93866
0.938302
0.936234
0.9374
0.944255
0.94671
0.940886
0.92224
0.893514
0.86312
0.831361
0.736613
0.638642
0.564864
0.550464
0.58831
0.661243
0.752863
0.818157
0.890903
0.924463
0.957665
0.992815
0.40873
0.411466
0.413326
0.419785
0.424639
0.441202
0.465405
0.483223
0.508791
0.526103
0.531032
0.536267
0.539217
0.539082
0.526744
0.513924
0.51731
0.512196
0.507395
0.407867
0.409055
0.407857
0.412042
0.403971
0.406312
0.434012
0.446658
0.466513
0.490698
0.497369
0.508464
0.522076
0.533487
0.530446
0.519223
0.515074
0.501429
0.48741
0.406301
0.405405
0.404275
0.408527
0.381978
0.361442
0.391218
0.397115
0.4035
0.430186
0.436882
0.452173
0.479803
0.508681
0.523992
0.526898
0.516565
0.492546
0.463948
0.404673
0.402247
0.405679
0.408509
0.368049
0.327536
0.354186
0.356719
0.352215
0.369244
0.372902
0.38577
0.418582
0.458629
0.494902
0.526977
0.524705
0.494232
0.452418
0.402712
0.400352
0.40992
0.408896
0.36128
0.307341
0.321158
0.326829
0.321133
0.323563
0.32374
0.330643
0.356347
0.393888
0.441168
0.50873
0.533231
0.504794
0.453989
0.397035
0.397443
0.412571
0.40509
0.355723
0.293795
0.290438
0.298555
0.298714
0.29476
0.293199
0.294349
0.306984
0.331428
0.3754
0.469094
0.534413
0.517964
0.466365
0.384073
0.390847
0.40935
0.397946
0.349722
0.281815
0.266377
0.269308
0.275197
0.27387
0.273895
0.271008
0.273912
0.28345
0.315013
0.417143
0.523707
0.530522
0.484645
0.386738
0.382284
0.400153
0.391007
0.344208
0.271665
0.251377
0.243511
0.251253
0.255243
0.257369
0.252655
0.250885
0.252144
0.272454
0.371655
0.506578
0.540571
0.501442
0.916167
0.915712
0.912425
0.91193
0.917483
0.915706
0.89808
0.849581
0.774027
0.712095
0.666232
0.543236
0.484517
0.456433
0.455161
0.468638
0.506227
0.579098
0.658136
0.755932
0.819156
0.873789
0.942995
0.87562
0.871504
0.866396
0.858821
0.860855
0.843277
0.790951
0.663798
0.516803
0.441674
0.425629
0.416037
0.446562
0.4805
0.500973
0.506849
0.502404
0.498603
0.519414
0.535528
0.58678
0.638614
0.742922
0.759219
0.75941
0.768918
0.768241
0.759352
0.707438
0.59729
0.459756
0.388264
0.375059
0.392186
0.413567
0.436756
0.48384
0.513402
0.526669
0.532822
0.538807
0.538768
0.530351
0.540501
0.570112
0.633491
0.419289
0.466903
0.534153
0.59033
0.601674
0.542917
0.41701
0.361868
0.341604
0.339381
0.332364
0.332533
0.30904
0.34755
0.393203
0.42305
0.44865
0.496167
0.526178
0.541924
0.557366
0.599051
0.635051
0.231706
0.241189
0.270783
0.326864
0.406746
0.430059
0.350988
0.313838
0.290882
0.282926
0.25882
0.24593
0.238895
0.256091
0.268781
0.277955
0.296653
0.329811
0.397084
0.452272
0.505134
0.590968
0.645434
0.210751
0.206788
0.208126
0.230852
0.296753
0.357515
0.303791
0.26889
0.242257
0.230372
0.221516
0.221325
0.216436
0.210551
0.197297
0.192103
0.192427
0.191025
0.21181
0.257139
0.300077
0.344817
0.381882
0.209776
0.203026
0.195665
0.206887
0.244217
0.297103
0.260849
0.234401
0.218515
0.209093
0.199399
0.191721
0.168913
0.146908
0.126769
0.115264
0.110731
0.107823
0.108766
0.128641
0.137181
0.137214
0.143474
0.206543
0.196272
0.19014
0.199108
0.228524
0.252052
0.229999
0.217468
0.20694
0.191304
0.17132
0.147721
0.113126
0.0905066
0.0724992
0.0617564
0.0563302
0.0565608
0.0544438
0.0550571
0.0568118
0.0541461
0.0576379
0.204364
0.192595
0.187435
0.193202
0.211428
0.220283
0.212983
0.209099
0.194932
0.170908
0.142001
0.110186
0.0796635
0.0592503
0.0444054
0.0373433
0.0309647
0.031674
0.0296497
0.0254049
0.0238136
0.0235338
0.0263224
0.203772
0.193687
0.188324
0.189339
0.19941
0.205209
0.205053
0.200948
0.181624
0.156101
0.127489
0.092325
0.0631993
0.0428311
0.0293218
0.023358
0.0195064
0.0186604
0.0169227
0.0134832
0.0110186
0.0111772
0.0117326
0.206072
0.197412
0.193005
0.190734
0.196802
0.201371
0.202234
0.196032
0.176111
0.140055
0.102025
0.0671687
0.0412278
0.0281285
0.0209616
0.0160802
0.0134682
0.0116805
0.00976474
0.00746087
0.00556001
0.00541817
0.0048069
0.201797
0.195172
0.194029
0.194075
0.196518
0.198998
0.197607
0.182681
0.159999
0.115761
0.0699571
0.0432747
0.0311318
0.02443
0.0192241
0.0150011
0.0119353
0.00969526
0.00768577
0.00564986
0.00353416
0.00270265
0.00202532
0.196444
0.190464
0.190334
0.191439
0.192194
0.192411
0.183499
0.160006
0.14198
0.0988848
0.0590965
0.0425493
0.0352389
0.0280136
0.0209278
0.0150349
0.0108855
0.00817026
0.00576719
0.00377246
0.00220153
0.00148578
0.00103055
0.192092
0.181283
0.179617
0.178728
0.176287
0.1726
0.154492
0.127009
0.121091
0.0936232
0.0662458
0.0496475
0.0390077
0.0299285
0.0217044
0.0151743
0.0112152
0.00876
0.00624012
0.00390512
0.00216268
0.00114022
0.000651154
0.189653
0.1692
0.160252
0.153686
0.148763
0.132432
0.106403
0.0845022
0.0838132
0.0713532
0.0536992
0.0441014
0.0349658
0.0273082
0.0203679
0.0140635
0.00911877
0.00725649
0.00600219
0.00465914
0.00320783
0.00167802
0.000813184
0.189772
0.159239
0.136574
0.121194
0.113754
0.0986889
0.0714936
0.056465
0.0523309
0.0468735
0.0390395
0.0302373
0.0255901
0.0208681
0.0169004
0.0125358
0.00789162
0.00524502
0.00414667
0.00356915
0.00277378
0.00177959
0.000962315
0.190802
0.155412
0.12336
0.102077
0.0923996
0.0794688
0.0621337
0.0509547
0.042099
0.0347576
0.0288816
0.020714
0.0174101
0.0138909
0.0121655
0.0108901
0.00868509
0.00541182
0.00317593
0.00248553
0.00193767
0.0012265
0.000593211
0.191721
0.155362
0.118656
0.0933963
0.0800902
0.0648827
0.0532626
0.0435067
0.0322372
0.024179
0.0179918
0.0113704
0.00854238
0.00760787
0.00803834
0.00795988
0.00677553
0.00430783
0.00225237
0.0013617
0.00101995
0.000652024
0.000346266
0.191726
0.155833
0.117429
0.0887884
0.0717014
0.0587936
0.0519478
0.0417036
0.0295577
0.0176286
0.0111374
0.00693728
0.00469432
0.00464211
0.00576499
0.00628818
0.00553185
0.00377537
0.00201298
0.00100153
0.00056933
0.00030378
0.00015618
0.190738
0.154329
0.11361
0.082517
0.0638201
0.0557379
0.057393
0.0468946
0.0337641
0.01555
0.00641611
0.00369692
0.00288389
0.00318611
0.00441189
0.00551157
0.00541592
0.00449602
0.00279824
0.00124733
0.000521415
0.000220145
9.79327e-05
0.187438
0.151336
0.11465
0.0838498
0.0643801
0.061361
0.0698938
0.0595216
0.0434418
0.0156378
0.00565391
0.00260581
0.0022871
0.00261947
0.0036546
0.00491473
0.00517209
0.00472902
0.00335427
0.00158572
0.000597277
0.000210268
7.13212e-05
0.185322
0.153745
0.121169
0.0882111
0.0694378
0.072552
0.0877028
0.0833192
0.0574498
0.0206818
0.00638915
0.00199309
0.00188591
0.00242258
0.00347567
0.00445837
0.00456083
0.00430854
0.00352127
0.00210533
0.000868059
0.000308354
0.000114203
0.184938
0.160181
0.134989
0.1013
0.0827401
0.0884857
0.100999
0.0985435
0.0666483
0.0233618
0.00509915
0.00119594
0.00137491
0.00209124
0.00312141
0.00348642
0.00306046
0.00272824
0.00225613
0.00142327
0.000629261
0.000229013
8.17349e-05
0.184866
0.168851
0.151722
0.123609
0.107487
0.111802
0.114837
0.106597
0.0701753
0.0246174
0.00475972
0.000915473
0.000948165
0.0013694
0.00185063
0.00169068
0.0013287
0.00133167
0.00128982
0.000898723
0.000410525
0.000132131
4.30352e-05
0.183641
0.170123
0.155484
0.140612
0.130367
0.126681
0.122055
0.108153
0.0712629
0.024755
0.00430412
0.000761216
0.000749309
0.000787118
0.000716242
0.000532953
0.000359137
0.000402292
0.000485797
0.000350046
0.000174277
5.93296e-05
1.89085e-05
0.179445
0.162838
0.1426
0.134754
0.130108
0.124335
0.11346
0.0888679
0.048125
0.0126605
0.00193623
0.000649592
0.000715574
0.000612591
0.000344649
0.000154421
6.25672e-05
7.49373e-05
0.000107855
0.000102968
5.14478e-05
1.69976e-05
5.84829e-06
0.169027
0.149608
0.125252
0.114351
0.109636
0.0976485
0.0770398
0.0540086
0.0275774
0.00834751
0.00172295
0.000928146
0.000836243
0.00063962
0.000262822
7.46228e-05
1.00861e-05
0
1.01529e-05
2.10284e-05
7.49496e-06
1.393e-06
6.73657e-07
0.147005
0.131147
0.109727
0.0924991
0.076534
0.0621964
0.0388967
0.0255507
0.0122805
0.00412778
0.00120415
0.00108393
0.00101194
0.000863249
0.000464331
0.000157283
6.9997e-05
2.57682e-05
6.09003e-06
3.38213e-06
2.36279e-07
0
0
0.116999
0.108415
0.0923056
0.0732147
0.0503734
0.0348307
0.0173338
0.00894341
0.00317911
0.00131042
0.00108048
0.00118802
0.00112259
0.00102962
0.00077782
0.00036974
0.00019591
8.63313e-05
2.81001e-05
8.84942e-06
2.51394e-06
5.6003e-07
8.61638e-08
0.0983915
0.0951661
0.0813019
0.0594088
0.0363502
0.0223381
0.00973653
0.00310055
0.00120245
0.00105099
0.0012028
0.00121671
0.00115832
0.00109613
0.000928811
0.000535786
0.000313325
0.000143404
5.13829e-05
1.79405e-05
5.90365e-06
1.71472e-06
4.47656e-07
0.08913
0.0861286
0.0708643
0.0484032
0.0268849
0.0147859
0.00674889
0.00206592
0.000976016
0.00112146
0.0011918
0.00110782
0.00111132
0.00111532
0.00101299
0.000717702
0.000422297
0.000187155
6.60061e-05
2.23692e-05
7.52817e-06
2.45994e-06
7.67031e-07
0.0832099
0.0786214
0.0613389
0.037421
0.018979
0.011144
0.00594623
0.00230556
0.00101209
0.001053
0.00103665
0.000944458
0.000994293
0.00106587
0.00102558
0.000781501
0.000468693
0.000206079
7.29644e-05
2.37374e-05
7.59296e-06
2.503e-06
8.29503e-07
0.0770788
0.0692078
0.0499283
0.028258
0.0129298
0.00616209
0.00308378
0.00153662
0.000885055
0.00089436
0.000880163
0.000849992
0.000937269
0.00102287
0.000969002
0.000745767
0.000409879
0.00016802
5.61523e-05
1.67664e-05
4.94002e-06
1.63602e-06
5.16198e-07
0.0699793
0.0574734
0.0371174
0.0185006
0.00805759
0.00377501
0.00194248
0.00108936
0.000689036
0.000664489
0.000703008
0.00080348
0.000927075
0.000980849
0.00086234
0.00061651
0.00036635
0.000179939
5.93982e-05
1.47706e-05
3.01956e-06
5.91623e-07
2.39093e-08
0.0623027
0.0451175
0.0256237
0.0112265
0.00438005
0.00192002
0.00106659
0.000676362
0.000503443
0.00053137
0.000647261
0.000851865
0.000946245
0.00088569
0.000674663
0.000400811
0.00020315
9.15737e-05
2.72668e-05
5.26931e-06
2.1041e-07
0
0
0.0554907
0.034882
0.0172586
0.00680987
0.00258101
0.00120909
0.000746419
0.000577405
0.000637467
0.000733697
0.000845083
0.000935063
0.000837954
0.000623689
0.000423823
0.000202129
8.88117e-05
3.54771e-05
7.62898e-06
0
0
0
0
0.0486634
0.0255998
0.0103768
0.00378977
0.00169644
0.00109631
0.000903924
0.000822002
0.000935521
0.000969305
0.000929848
0.000773957
0.00052417
0.000267467
0.000177433
6.96278e-05
2.5598e-05
7.16324e-06
0
0
0
0
0
0.0415389
0.0171809
0.00536554
0.00205215
0.00134361
0.0011609
0.00104081
0.00095699
0.000918072
0.000767094
0.000499298
0.000313208
0.00018425
8.47996e-05
5.72163e-05
1.65068e-05
3.41419e-06
0
0
0
0
0
0
0.032789
0.0103631
0.00274548
0.00130267
0.00106991
0.000893524
0.000662421
0.000485429
0.000357383
0.000228404
0.000124844
6.93229e-05
2.1962e-05
3.37972e-06
6.29004e-06
0
0
0
0
0
0
0
0
0.0249542
0.00530765
0.00107456
0.000651412
0.00053992
0.00036559
0.000215579
0.000121844
7.14571e-05
2.56932e-05
7.33028e-06
0
0
0
0
0
0
0
0
0
0
0
0
0.0148234
0.00158276
0.000132415
0.000188487
0.000166511
9.66677e-05
5.32262e-05
2.72241e-05
1.20946e-05
0
0
0
0
0
0
0
0
0
7.86455e-08
2.89074e-08
0
0
0
0.00473357
7.05079e-05
0
6.04067e-05
7.29678e-05
4.29059e-05
2.64222e-05
1.68645e-05
9.21545e-06
0
0
0
0
0
0
0
0
0
9.80984e-08
2.59177e-08
0
0
0
0.951499
0.962225
0.956714
0.88197
0.814968
0.860739
0.891281
0.865322
0.691296
0.738299
0.788016
0.807795
0.675141
0.716104
0.761662
0.777442
0.687993
0.704878
0.707466
0.674017
0.424078
0.436704
0.423597
0.376239
0.152854
0.152868
0.146084
0.135491
0.0594836
0.0584895
0.0565994
0.0538313
0.0261571
0.0254176
0.0245848
0.0234154
0.0114631
0.0113652
0.0114089
0.011358
0.00455169
0.00462139
0.00491323
0.00517311
0.00181917
0.00180574
0.00190439
0.00202146
0.000821892
0.000745508
0.000736902
0.000745813
0.000452414
0.000370887
0.000337021
0.000320009
0.000453529
0.000291609
0.000204936
0.000169639
0.000526256
0.000320859
0.000188583
0.000118247
0.000296143
0.000167178
8.48106e-05
4.03537e-05
0.000174764
9.43419e-05
4.14931e-05
1.24692e-05
7.45432e-05
3.68511e-05
1.35405e-05
1.44246e-06
4.66325e-05
2.3906e-05
9.47934e-06
1.52953e-06
3.13074e-05
1.51173e-05
5.98708e-06
1.28391e-06
4.87522e-05
2.46749e-05
1.11899e-05
3.93285e-06
3.43165e-05
1.80721e-05
8.6004e-06
3.55914e-06
1.68801e-05
9.00582e-06
4.48128e-06
2.02347e-06
6.56273e-06
3.20501e-06
1.47893e-06
5.92391e-07
1.71082e-06
6.46362e-07
2.0187e-07
2.16718e-08
8.55751e-08
0
0
0
0
0
0
0
1.92676e-09
0
0
0
1.61126e-07
5.96728e-08
8.45468e-09
0
2.89866e-07
1.16174e-07
2.30549e-08
0
3.42152e-07
1.48858e-07
2.60969e-08
0
1.58717e-07
4.9012e-10
0
0
0
0
0
0
0
0
0
0
0
0
0
0
0
0
0
0
0
0
0
0
0
0
0
0
0
0
0
0
0
0
0
0
0
0
0
0
0.50043
0.390022
0.389109
0.38185
0.326065
0.254776
0.236718
0.221013
0.221767
0.226592
0.230054
0.227421
0.223864
0.223307
0.24466
0.344921
0.489435
0.551598
0.518978
0.677698
0.463155
0.415497
0.370688
0.265352
0.216657
0.215422
0.207232
0.197677
0.194174
0.201663
0.209961
0.212392
0.229933
0.27415
0.366103
0.507487
0.561029
0.520906
0.755816
0.566278
0.436708
0.308194
0.219467
0.198031
0.205184
0.204427
0.206063
0.214
0.238731
0.246748
0.239494
0.288113
0.365813
0.404558
0.46803
0.536692
0.509454
0.725707
0.553499
0.389828
0.225183
0.165492
0.157996
0.174056
0.189612
0.234743
0.253812
0.273179
0.284032
0.292581
0.320465
0.313925
0.299563
0.332336
0.455003
0.484185
0.549944
0.430442
0.261344
0.154173
0.114621
0.0933066
0.0984641
0.103875
0.147242
0.156583
0.15603
0.162579
0.201119
0.2055
0.168723
0.164789
0.183004
0.316688
0.437094
0.279563
0.230499
0.147968
0.0953142
0.0664841
0.0469217
0.0452972
0.0439777
0.0569161
0.0565763
0.0567659
0.0578307
0.0678346
0.0706751
0.0631433
0.0771222
0.0989478
0.210232
0.363446
0.121126
0.109454
0.0750366
0.0502679
0.0350782
0.0246133
0.0229211
0.0222857
0.0228453
0.0200487
0.0195671
0.0197569
0.0207604
0.0240953
0.0294329
0.0430704
0.0705688
0.148887
0.268355
0.0503776
0.0459974
0.0337044
0.0242686
0.0186982
0.0151406
0.0145784
0.0138598
0.0117496
0.00967167
0.00876799
0.00838543
0.0086077
0.0100708
0.0126845
0.0184851
0.0341558
0.0761351
0.157915
0.0221162
0.0202161
0.0166797
0.0137437
0.0119806
0.0105427
0.0104002
0.00998999
0.00842451
0.00664889
0.00520588
0.00453287
0.0044119
0.00414821
0.00408016
0.00467364
0.0100024
0.0261659
0.0655215
0.0113208
0.0105609
0.00944056
0.00824851
0.00761084
0.0069857
0.00710438
0.00754737
0.00752133
0.0066633
0.00497547
0.00374029
0.00291684
0.00219043
0.00162508
0.00130871
0.00222691
0.0059101
0.0142722
0.00544432
0.00528064
0.00505108
0.00471789
0.00438158
0.00384225
0.00400259
0.00510457
0.00619205
0.00647594
0.00533865
0.00424984
0.00339805
0.00250609
0.00156647
0.000963339
0.000712891
0.000744644
0.00131376
0.00215656
0.00221662
0.00228278
0.00225781
0.00204646
0.00176416
0.001946
0.00285803
0.00427785
0.00516622
0.00538587
0.00496561
0.00435047
0.00337736
0.00210107
0.00128504
0.000764374
0.000498813
0.000409377
0.000739716
0.00079203
0.000869528
0.000903266
0.000828661
0.000681284
0.000766735
0.00120085
0.00214682
0.00318233
0.00394616
0.00420762
0.00418463
0.00361301
0.00236989
0.00131877
0.000741502
0.000532683
0.000477493
0.000271506
0.000269605
0.00028322
0.000283275
0.000296063
0.000247327
0.000262672
0.000382313
0.000787016
0.00141482
0.00215694
0.00270727
0.00311829
0.0032905
0.00230795
0.00133703
0.000714516
0.000485001
0.000432285
0.000126356
9.86115e-05
8.75177e-05
7.70018e-05
9.06166e-05
8.81894e-05
9.19145e-05
0.000118598
0.000238779
0.000486216
0.000933339
0.00141032
0.0019708
0.00255523
0.00199333
0.00129323
0.000699372
0.000435349
0.000392271
6.88047e-05
4.44222e-05
2.89041e-05
1.93262e-05
2.03422e-05
2.63778e-05
3.8104e-05
4.21285e-05
6.24161e-05
0.000118525
0.000290028
0.000543859
0.000975122
0.00160207
0.00146001
0.00114023
0.000636903
0.00037314
0.000362044
2.02749e-05
1.49742e-05
8.34839e-06
2.86422e-06
2.48328e-06
4.25047e-06
1.41722e-05
1.78354e-05
1.84965e-05
2.29502e-05
6.5806e-05
0.000138906
0.000330987
0.000751003
0.00081346
0.000734526
0.000442124
0.000297017
0.000337676
8.9154e-07
2.15723e-07
0
0
0
0
3.80444e-06
6.40805e-06
6.77768e-06
5.64107e-06
1.09776e-05
2.28539e-05
6.7621e-05
0.0002313
0.000323128
0.000322969
0.000233182
0.000232475
0.000317954
0
0
0
0
0
0
0
1.4546e-06
2.08321e-06
1.80602e-06
1.42006e-06
9.80063e-07
9.80248e-06
6.75633e-05
9.03424e-05
0.000118952
0.000120216
0.000190648
0.000302913
0
0
0
0
0
0
0
0
1.12625e-07
1.87891e-07
1.54362e-08
0
0
1.60854e-05
1.96989e-05
3.90741e-05
7.34709e-05
0.000171632
0.000289555
0
0
0
0
0
0
0
0
0
0
0
0
0
1.4871e-06
2.57897e-06
1.54239e-05
5.75461e-05
0.00016214
0.00027658
9.51354e-09
0
0
0
0
0
0
0
0
0
0
0
0
0
0
7.97851e-06
4.56961e-05
0.000144558
0.000262736
5.23832e-07
0
0
0
3.52218e-09
0
0
0
0
0
0
0
0
0
0
6.39816e-06
4.11975e-05
0.000134273
0.000251933
3.05798e-07
6.94981e-09
0
8.45833e-09
1.24681e-08
3.97848e-09
0
0
0
0
0
0
0
0
0
4.95429e-06
3.91141e-05
0.00013483
0.000243764
3.86375e-08
0
2.51577e-09
5.22188e-09
1.48862e-09
0
0
0
0
0
0
0
0
0
0
3.4847e-06
3.19725e-05
0.000118606
0.000231982
0
0
0
0
0
0
0
0
0
0
0
0
0
0
0
2.67202e-06
3.05389e-05
0.000114534
0.000223416
0
0
0
0
0
0
0
0
0
0
0
0
0
0
0
2.28625e-06
2.80217e-05
0.000108105
0.000214219
0
0
0
0
0
0
0
0
0
0
0
0
0
0
0
1.59811e-06
2.32644e-05
9.59017e-05
0.000201121
0
0
0
0
0
0
0
0
0
0
0
0
0
0
0
8.44818e-07
1.84873e-05
8.34074e-05
0.000187589
0
0
0
0
0
0
0
0
2.95701e-07
8.77764e-07
1.09785e-06
8.02045e-07
5.53552e-07
1.01239e-07
0
2.13966e-07
1.26915e-05
6.88167e-05
0.000180495
0
0
0
0
0
0
0
6.48698e-07
2.02222e-06
3.23694e-06
3.74252e-06
3.24201e-06
2.70936e-06
1.44384e-06
0
3.01853e-07
1.34851e-05
7.87017e-05
0.000191524
0
0
0
0
0
0
7.28888e-07
2.68304e-06
5.48838e-06
7.80649e-06
9.28061e-06
7.9717e-06
6.56384e-06
4.43262e-06
1.09762e-06
9.71934e-07
1.52421e-05
8.21755e-05
0.000187871
0
0
0
0
0
1.57867e-06
4.0966e-06
8.49608e-06
1.42747e-05
1.85472e-05
1.9005e-05
1.65846e-05
1.27671e-05
8.66597e-06
2.99473e-06
1.84757e-06
1.62133e-05
8.45442e-05
0.000195008
0
0
0
0
2.14914e-06
6.40267e-06
1.24109e-05
1.84024e-05
2.56021e-05
3.37998e-05
3.26099e-05
2.73411e-05
2.06338e-05
1.37984e-05
5.28992e-06
2.88885e-06
1.80292e-05
9.6456e-05
0.000212904
0
0
0
6.84152e-07
4.31178e-06
1.14565e-05
2.33052e-05
3.30534e-05
4.195e-05
4.90091e-05
4.76536e-05
4.14585e-05
3.11425e-05
1.92801e-05
7.67213e-06
4.19e-06
2.21119e-05
0.000118766
0.000215477
0
0
0
2.3671e-06
7.81996e-06
1.69579e-05
3.26593e-05
4.77662e-05
5.85619e-05
6.2617e-05
6.1452e-05
5.54813e-05
4.19717e-05
2.65857e-05
1.10491e-05
5.86794e-06
2.21253e-05
0.000106275
0.00019056
0
0
6.92656e-07
4.14277e-06
1.07672e-05
2.07168e-05
3.80991e-05
5.71833e-05
6.78235e-05
6.88381e-05
6.67276e-05
6.05985e-05
4.71954e-05
2.98686e-05
1.34233e-05
7.42658e-06
2.21781e-05
8.96681e-05
0.000153446
0
7.95016e-08
3.12653e-06
8.64005e-06
1.91136e-05
3.30618e-05
5.09543e-05
6.57222e-05
6.86963e-05
6.61072e-05
6.40412e-05
5.99727e-05
4.83196e-05
3.19727e-05
1.54128e-05
8.84197e-06
2.15603e-05
8.01296e-05
0.000157206
0
1.01208e-06
5.78966e-06
1.45457e-05
3.0191e-05
4.99874e-05
6.35323e-05
6.75938e-05
6.35482e-05
5.8568e-05
5.79578e-05
5.82906e-05
4.85403e-05
3.21738e-05
1.6671e-05
9.64851e-06
2.27177e-05
8.29695e-05
0.000163479
0
1.73405e-06
7.761e-06
1.93092e-05
3.85547e-05
6.07246e-05
6.83205e-05
6.33819e-05
5.40319e-05
4.93091e-05
5.03675e-05
5.52438e-05
4.87974e-05
3.31608e-05
1.82739e-05
1.06269e-05
2.40985e-05
8.08774e-05
0.000160042
0
2.49708e-06
9.02531e-06
1.82458e-05
3.2806e-05
5.43778e-05
6.53647e-05
5.68116e-05
4.71604e-05
4.32052e-05
4.56187e-05
5.04547e-05
4.75643e-05
3.35781e-05
2.04025e-05
1.25429e-05
2.61685e-05
7.85273e-05
0.000152402
0
2.75123e-06
1.0054e-05
1.79093e-05
2.75173e-05
4.38608e-05
5.91502e-05
5.18514e-05
4.27876e-05
3.96994e-05
4.13288e-05
4.44569e-05
4.3807e-05
3.2118e-05
2.15571e-05
1.49884e-05
2.51472e-05
6.44004e-05
0.000120742
)
;

boundaryField
{
    leftWall
    {
        type            zeroGradient;
    }
    rightWall
    {
        type            zeroGradient;
    }
    lowerWall
    {
        type            zeroGradient;
    }
    atmosphere
    {
        type            inletOutlet;
        inletValue      uniform 0;
        value           nonuniform List<scalar> 
46
(
0.00473357
7.05079e-05
0
6.04067e-05
7.29678e-05
4.29059e-05
2.64222e-05
1.68645e-05
9.21545e-06
0
0
0
0
0
0
0
0
0
9.80984e-08
2.59177e-08
0
0
0
0
0
0
0
0
2.75123e-06
1.0054e-05
1.79093e-05
2.75173e-05
4.38608e-05
5.91502e-05
5.18514e-05
4.27876e-05
3.96994e-05
4.13288e-05
4.44569e-05
4.3807e-05
3.2118e-05
2.15571e-05
1.49884e-05
2.51472e-05
6.44004e-05
0.000120742
)
;
    }
    defaultFaces
    {
        type            empty;
    }
}


// ************************************************************************* //
