/*--------------------------------*- C++ -*----------------------------------*\
| =========                 |                                                 |
| \\      /  F ield         | foam-extend: Open Source CFD                    |
|  \\    /   O peration     | Version:     4.1                                |
|   \\  /    A nd           | Web:         http://www.foam-extend.org         |
|    \\/     M anipulation  |                                                 |
\*---------------------------------------------------------------------------*/
FoamFile
{
    version     2.0;
    format      ascii;
    class       volScalarField;
    location    "1";
    object      C;
}
// * * * * * * * * * * * * * * * * * * * * * * * * * * * * * * * * * * * * * //

dimensions      [0 0 0 0 0 0 0];

internalField   nonuniform List<scalar> 
2268
(
0.987177
0.983794
0.978724
0.976223
0.97717
0.97952
0.982401
0.984229
0.985128
0.986133
0.987415
0.989278
0.993273
0.996045
0.999019
1.00161
1.00085
0.999494
1.00107
1.00473
1.00729
1.00798
1.00796
0.983305
0.979963
0.975031
0.972769
0.974283
0.977054
0.980467
0.982567
0.983663
0.984864
0.9857
0.986307
0.9886
0.988471
0.9914
0.994108
0.993022
0.99248
0.996865
1.00275
1.00662
1.00806
1.00836
0.974917
0.971637
0.967057
0.965219
0.968094
0.971754
0.976163
0.97862
0.980032
0.981275
0.980349
0.976759
0.972549
0.964615
0.968308
0.971634
0.971534
0.974923
0.98677
0.998174
1.00479
1.00812
1.00938
0.962349
0.959299
0.955166
0.953921
0.959053
0.964085
0.969395
0.971676
0.972756
0.973141
0.968022
0.954972
0.934192
0.91126
0.915482
0.921097
0.92851
0.944207
0.968885
0.989961
1.00102
1.00781
1.01115
0.945928
0.943389
0.939676
0.939353
0.947276
0.953954
0.958988
0.959904
0.958443
0.955458
0.942728
0.909898
0.857122
0.806748
0.805664
0.82083
0.851791
0.894093
0.937527
0.975248
0.992624
1.00556
1.01338
0.926031
0.924205
0.920794
0.921666
0.932584
0.940413
0.943207
0.93946
0.931285
0.918713
0.894012
0.826338
0.719396
0.62451
0.609847
0.651511
0.727695
0.811979
0.883492
0.946569
0.973056
0.996984
1.01426
0.903081
0.901936
0.8985
0.900631
0.91394
0.921246
0.91902
0.904007
0.880257
0.84917
0.806663
0.684232
0.51523
0.375502
0.342849
0.416526
0.54481
0.684602
0.790281
0.888861
0.930847
0.972615
1.00918
0.877321
0.876605
0.872468
0.8748
0.88851
0.89342
0.881773
0.844481
0.787028
0.726241
0.662723
0.473227
0.277285
0.129729
0.100928
0.176619
0.322487
0.505727
0.636315
0.781806
0.848926
0.915331
0.98563
-0.18254
-0.177069
-0.173347
-0.160431
-0.150722
-0.117597
-0.0691892
-0.0335541
0.0175822
0.0522056
0.0620635
0.0725335
0.0784337
0.0781634
0.0534886
0.0278473
0.0346198
0.0243921
0.0147891
-0.184266
-0.18189
-0.184285
-0.175915
-0.192059
-0.187377
-0.131975
-0.106685
-0.0669744
-0.0186035
-0.00526254
0.0169276
0.0441519
0.0669735
0.0608914
0.0384454
0.0301478
0.0028576
-0.0251793
-0.187399
-0.189191
-0.19145
-0.182946
-0.236043
-0.277116
-0.217564
-0.20577
-0.192999
-0.139629
-0.126235
-0.0956542
-0.0403944
0.0173618
0.0479835
0.0537957
0.0331298
-0.0149085
-0.0721038
-0.190654
-0.195507
-0.188642
-0.182982
-0.263903
-0.344928
-0.291627
-0.286561
-0.29557
-0.261513
-0.254195
-0.228461
-0.162837
-0.0827426
-0.0101963
0.0539537
0.0494109
-0.0115364
-0.0951639
-0.194575
-0.199296
-0.18016
-0.182208
-0.27744
-0.385318
-0.357684
-0.346342
-0.357735
-0.352874
-0.35252
-0.338713
-0.287306
-0.212224
-0.117664
0.0174599
0.0664615
0.00958881
-0.0920214
-0.205931
-0.205113
-0.174859
-0.189821
-0.288554
-0.41241
-0.419123
-0.40289
-0.402573
-0.41048
-0.413602
-0.411302
-0.386033
-0.337145
-0.249199
-0.0618128
0.0688259
0.0359278
-0.0672708
-0.231854
-0.218305
-0.1813
-0.204107
-0.300556
-0.43637
-0.467246
-0.461384
-0.449607
-0.452259
-0.45221
-0.457984
-0.452176
-0.433099
-0.369975
-0.165713
0.0474144
0.0610445
-0.0307095
-0.226523
-0.235433
-0.199695
-0.217985
-0.311584
-0.45667
-0.497246
-0.512978
-0.497495
-0.489513
-0.485262
-0.49469
-0.498231
-0.495711
-0.455092
-0.25669
0.0131567
0.0811427
0.00288328
0.832335
0.831424
0.824849
0.823861
0.834967
0.831412
0.79616
0.699163
0.548054
0.42419
0.332464
0.0864728
-0.030965
-0.087134
-0.089678
-0.0627238
0.0124541
0.158196
0.316273
0.511864
0.638312
0.747579
0.88599
0.75124
0.743008
0.732792
0.717642
0.72171
0.686554
0.581903
0.327597
0.0336052
-0.116652
-0.148741
-0.167926
-0.106876
-0.0389996
0.00194559
0.0136989
0.00480863
-0.00279304
0.0388282
0.0710566
0.17356
0.277229
0.485843
0.518438
0.518821
0.537837
0.536482
0.518703
0.414877
0.194579
-0.0804887
-0.223473
-0.249881
-0.215628
-0.172866
-0.126488
-0.0323204
0.0268031
0.0533389
0.0656449
0.0776146
0.0775366
0.0607028
0.0810024
0.140223
0.266981
-0.161422
-0.0661946
0.0683058
0.180661
0.203348
0.085835
-0.16598
-0.276264
-0.316792
-0.321238
-0.335272
-0.334934
-0.381919
-0.304899
-0.213594
-0.153899
-0.102701
-0.00766622
0.0523558
0.0838475
0.114731
0.198103
0.270102
-0.536587
-0.517622
-0.458435
-0.346272
-0.186509
-0.139882
-0.298024
-0.372325
-0.418236
-0.434148
-0.48236
-0.508141
-0.52221
-0.487818
-0.462439
-0.444091
-0.406694
-0.340378
-0.205833
-0.0954568
0.0102676
0.181937
0.290869
-0.578499
-0.586425
-0.583749
-0.538296
-0.406493
-0.28497
-0.392418
-0.46222
-0.515486
-0.539256
-0.556967
-0.55735
-0.567127
-0.578899
-0.605406
-0.615793
-0.615145
-0.617949
-0.576379
-0.485723
-0.399846
-0.310365
-0.236236
-0.580448
-0.593948
-0.60867
-0.586225
-0.511566
-0.405794
-0.478302
-0.531199
-0.56297
-0.581814
-0.601202
-0.616558
-0.662175
-0.706183
-0.746462
-0.769472
-0.778539
-0.784355
-0.782467
-0.742717
-0.725639
-0.725571
-0.713052
-0.586915
-0.607455
-0.61972
-0.601784
-0.542953
-0.495895
-0.540002
-0.565063
-0.58612
-0.617391
-0.65736
-0.704557
-0.773748
-0.818987
-0.855002
-0.876487
-0.88734
-0.886878
-0.891112
-0.889886
-0.886376
-0.891708
-0.884724
-0.591273
-0.61481
-0.62513
-0.613597
-0.577143
-0.559433
-0.574034
-0.581801
-0.610137
-0.658184
-0.715998
-0.779628
-0.840673
-0.881499
-0.911189
-0.925313
-0.938071
-0.936652
-0.940701
-0.94919
-0.952373
-0.952932
-0.947355
-0.592455
-0.612626
-0.623353
-0.621322
-0.601179
-0.589581
-0.589894
-0.598104
-0.636752
-0.687799
-0.745022
-0.81535
-0.873601
-0.914338
-0.941356
-0.953284
-0.960987
-0.962679
-0.966155
-0.973034
-0.977963
-0.977646
-0.976535
-0.587856
-0.605175
-0.613991
-0.618531
-0.606396
-0.597259
-0.595532
-0.607936
-0.647779
-0.71989
-0.79595
-0.865663
-0.917544
-0.943743
-0.958077
-0.96784
-0.973064
-0.976639
-0.980471
-0.985078
-0.98888
-0.989164
-0.990386
-0.596406
-0.609656
-0.611942
-0.611849
-0.606965
-0.602005
-0.604787
-0.634638
-0.680002
-0.768477
-0.860086
-0.913451
-0.937736
-0.95114
-0.961552
-0.969998
-0.976129
-0.980609
-0.984628
-0.9887
-0.992932
-0.994595
-0.995949
-0.607112
-0.619071
-0.619332
-0.617122
-0.615611
-0.615179
-0.633003
-0.679987
-0.71604
-0.80223
-0.881807
-0.914901
-0.929522
-0.943973
-0.958144
-0.96993
-0.978229
-0.983659
-0.988466
-0.992455
-0.995597
-0.997028
-0.997939
-0.615815
-0.637435
-0.640767
-0.642544
-0.647426
-0.654801
-0.691015
-0.745983
-0.757819
-0.812754
-0.867508
-0.900705
-0.921985
-0.940143
-0.956591
-0.969651
-0.97757
-0.98248
-0.98752
-0.99219
-0.995675
-0.99772
-0.998698
-0.620693
-0.6616
-0.679496
-0.692628
-0.702474
-0.735136
-0.787194
-0.830996
-0.832374
-0.857294
-0.892602
-0.911797
-0.930068
-0.945384
-0.959264
-0.971873
-0.981762
-0.985487
-0.987996
-0.990682
-0.993584
-0.996644
-0.998374
-0.620457
-0.681523
-0.726852
-0.757612
-0.772492
-0.802622
-0.857013
-0.88707
-0.895338
-0.906253
-0.921921
-0.939525
-0.94882
-0.958264
-0.966199
-0.974928
-0.984217
-0.98951
-0.991707
-0.992862
-0.994452
-0.996441
-0.998075
-0.618397
-0.689177
-0.753279
-0.795846
-0.815201
-0.841062
-0.875733
-0.898091
-0.915802
-0.930485
-0.942237
-0.958572
-0.96518
-0.972218
-0.975669
-0.97822
-0.98263
-0.989176
-0.993648
-0.995029
-0.996125
-0.997547
-0.998814
-0.616557
-0.689275
-0.762687
-0.813207
-0.83982
-0.870235
-0.893475
-0.912987
-0.935526
-0.951642
-0.964016
-0.977259
-0.982915
-0.984784
-0.983923
-0.98408
-0.986449
-0.991384
-0.995495
-0.997277
-0.99796
-0.998696
-0.999307
-0.616547
-0.688333
-0.765141
-0.822423
-0.856597
-0.882413
-0.896104
-0.916593
-0.940885
-0.964743
-0.977725
-0.986125
-0.990611
-0.990716
-0.98847
-0.987424
-0.988936
-0.992449
-0.995974
-0.997997
-0.998861
-0.999392
-0.999688
-0.618523
-0.691343
-0.772781
-0.834966
-0.87236
-0.888524
-0.885214
-0.906211
-0.932472
-0.9689
-0.987168
-0.992606
-0.994232
-0.993628
-0.991176
-0.988977
-0.989168
-0.991008
-0.994404
-0.997505
-0.998957
-0.99956
-0.999804
-0.625124
-0.697328
-0.7707
-0.8323
-0.87124
-0.877278
-0.860212
-0.880957
-0.913116
-0.968724
-0.988692
-0.994788
-0.995426
-0.994761
-0.992691
-0.990171
-0.989656
-0.990542
-0.993291
-0.996829
-0.998805
-0.999579
-0.999857
-0.629356
-0.692509
-0.757661
-0.823578
-0.861124
-0.854896
-0.824594
-0.833362
-0.8851
-0.958636
-0.987222
-0.996014
-0.996228
-0.995155
-0.993049
-0.991083
-0.990878
-0.991383
-0.992957
-0.995789
-0.998264
-0.999383
-0.999772
-0.630124
-0.679639
-0.730021
-0.7974
-0.83452
-0.823029
-0.798003
-0.802913
-0.866703
-0.953276
-0.989802
-0.997608
-0.99725
-0.995818
-0.993757
-0.993027
-0.993879
-0.994544
-0.995488
-0.997153
-0.998741
-0.999542
-0.999837
-0.630269
-0.662298
-0.696556
-0.752781
-0.785025
-0.776395
-0.770327
-0.786807
-0.859649
-0.950765
-0.990481
-0.998169
-0.998104
-0.997261
-0.996299
-0.996619
-0.997343
-0.997337
-0.99742
-0.998203
-0.999179
-0.999736
-0.999914
-0.632718
-0.659754
-0.689032
-0.718776
-0.739265
-0.746637
-0.75589
-0.783693
-0.857474
-0.95049
-0.991392
-0.998478
-0.998501
-0.998426
-0.998568
-0.998934
-0.999282
-0.999195
-0.999028
-0.9993
-0.999651
-0.999881
-0.999962
-0.64111
-0.674325
-0.714799
-0.730492
-0.739783
-0.75133
-0.773079
-0.822264
-0.90375
-0.974679
-0.996128
-0.998701
-0.998569
-0.998775
-0.999311
-0.999691
-0.999875
-0.99985
-0.999784
-0.999794
-0.999897
-0.999966
-0.999988
-0.661947
-0.700784
-0.749496
-0.771299
-0.780727
-0.804703
-0.84592
-0.891983
-0.944845
-0.983305
-0.996554
-0.998144
-0.998328
-0.998721
-0.999474
-0.999851
-0.99998
-1
-0.99998
-0.999958
-0.999985
-0.999997
-0.999999
-0.70599
-0.737707
-0.780547
-0.815002
-0.846932
-0.875607
-0.922207
-0.948899
-0.975439
-0.991744
-0.997592
-0.997832
-0.997976
-0.998274
-0.999071
-0.999685
-0.99986
-0.999948
-0.999988
-0.999993
-1
-1
-1
-0.766001
-0.78317
-0.815389
-0.853571
-0.899253
-0.930339
-0.965332
-0.982113
-0.993642
-0.997379
-0.997839
-0.997624
-0.997755
-0.997941
-0.998444
-0.999261
-0.999608
-0.999827
-0.999944
-0.999982
-0.999995
-0.999999
-1
-0.803217
-0.809668
-0.837396
-0.881182
-0.9273
-0.955324
-0.980527
-0.993799
-0.997595
-0.997898
-0.997594
-0.997567
-0.997683
-0.997808
-0.998142
-0.998928
-0.999373
-0.999713
-0.999897
-0.999964
-0.999988
-0.999997
-0.999999
-0.82174
-0.827743
-0.858271
-0.903194
-0.94623
-0.970428
-0.986502
-0.995868
-0.998048
-0.997757
-0.997616
-0.997784
-0.997777
-0.997769
-0.997974
-0.998565
-0.999155
-0.999626
-0.999868
-0.999955
-0.999985
-0.999995
-0.999998
-0.83358
-0.842757
-0.877322
-0.925158
-0.962042
-0.977712
-0.988108
-0.995389
-0.997976
-0.997894
-0.997927
-0.998111
-0.998011
-0.997868
-0.997949
-0.998437
-0.999063
-0.999588
-0.999854
-0.999953
-0.999985
-0.999995
-0.999998
-0.845842
-0.861584
-0.900143
-0.943484
-0.97414
-0.987676
-0.993832
-0.996927
-0.99823
-0.998211
-0.99824
-0.9983
-0.998125
-0.997954
-0.998062
-0.998508
-0.99918
-0.999664
-0.999888
-0.999966
-0.99999
-0.999997
-0.999999
-0.860041
-0.885053
-0.925765
-0.962999
-0.983885
-0.99245
-0.996115
-0.997821
-0.998622
-0.998671
-0.998594
-0.998393
-0.998146
-0.998038
-0.998275
-0.998767
-0.999267
-0.99964
-0.999881
-0.99997
-0.999994
-0.999999
-1
-0.875395
-0.909765
-0.948753
-0.977547
-0.99124
-0.99616
-0.997867
-0.998647
-0.998993
-0.998937
-0.998705
-0.998296
-0.998108
-0.998229
-0.998651
-0.999198
-0.999594
-0.999817
-0.999945
-0.999989
-1
-1
-1
-0.889019
-0.930236
-0.965483
-0.98638
-0.994838
-0.997582
-0.998507
-0.998845
-0.998725
-0.998533
-0.99831
-0.99813
-0.998324
-0.998753
-0.999152
-0.999596
-0.999822
-0.999929
-0.999985
-1
-1
-1
-1
-0.902673
-0.9488
-0.979246
-0.99242
-0.996607
-0.997807
-0.998192
-0.998356
-0.998129
-0.998061
-0.99814
-0.998452
-0.998952
-0.999465
-0.999645
-0.999861
-0.999949
-0.999986
-1
-1
-1
-1
-1
-0.916922
-0.965638
-0.989269
-0.995896
-0.997313
-0.997678
-0.997918
-0.998086
-0.998164
-0.998466
-0.999001
-0.999374
-0.999631
-0.99983
-0.999886
-0.999967
-0.999993
-1
-1
-1
-1
-1
-1
-0.934422
-0.979274
-0.994509
-0.997395
-0.99786
-0.998213
-0.998675
-0.999029
-0.999285
-0.999543
-0.99975
-0.999861
-0.999956
-0.999993
-0.999987
-1
-1
-1
-1
-1
-1
-1
-1
-0.950092
-0.989385
-0.997851
-0.998697
-0.99892
-0.999269
-0.999569
-0.999756
-0.999857
-0.999949
-0.999985
-1.00001
-1.00003
-1.00003
-1.00001
-1.00001
-1
-1
-1
-1
-1
-1
-1
-0.970353
-0.996834
-0.999735
-0.999623
-0.999667
-0.999807
-0.999894
-0.999946
-0.999976
-1.00001
-1.00003
-1.00003
-1.00004
-1.00003
-1.00002
-1.00001
-1
-1
-1
-1
-1
-1
-1
-0.990533
-0.999859
-1.00018
-0.999879
-0.999854
-0.999914
-0.999947
-0.999966
-0.999982
-1.00001
-1.00003
-1.00004
-1.00004
-1.00003
-1.00002
-1.00001
-1
-1
-1
-1
-1
-1
-1
0.902998
0.92445
0.913428
0.763939
0.629936
0.721477
0.782563
0.730643
0.382591
0.476598
0.576031
0.61559
0.350283
0.432208
0.523323
0.554884
0.375986
0.409755
0.414932
0.348033
-0.151843
-0.126591
-0.152805
-0.247523
-0.694292
-0.694263
-0.707833
-0.729017
-0.881033
-0.883021
-0.886801
-0.892337
-0.947686
-0.949165
-0.95083
-0.953169
-0.977074
-0.97727
-0.977182
-0.977284
-0.990897
-0.990757
-0.990174
-0.989654
-0.996362
-0.996389
-0.996191
-0.995957
-0.998356
-0.998509
-0.998526
-0.998508
-0.999095
-0.999258
-0.999326
-0.99936
-0.999093
-0.999417
-0.99959
-0.999661
-0.998947
-0.999358
-0.999623
-0.999764
-0.999408
-0.999666
-0.99983
-0.999919
-0.99965
-0.999811
-0.999917
-0.999975
-0.999851
-0.999926
-0.999973
-0.999997
-0.999907
-0.999952
-0.999981
-0.999997
-0.999937
-0.99997
-0.999988
-0.999997
-0.999902
-0.999951
-0.999978
-0.999992
-0.999931
-0.999964
-0.999983
-0.999993
-0.999966
-0.999982
-0.999991
-0.999996
-0.999987
-0.999994
-0.999997
-0.999999
-0.999997
-0.999999
-1
-1
-1
-1
-1
-1
-1
-1
-1
-1
-1
-1
-1
-1
-1
-1
-1
-1
-0.999999
-1
-1
-1
-0.999999
-1
-1
-1
-1
-1
-1
-1
-1
-1
-1
-1
-1
-1
-1
-1
-1
-1
-1
-1
-1
-1
-1
-1
-1
-1
-1
-1
-1
-1
-1
-1
-1
-1
-1
-1
-1
-1
-1
-1
-1
-1
-1
-1
0.000860994
-0.219955
-0.221782
-0.236301
-0.34787
-0.490448
-0.526564
-0.557974
-0.556465
-0.546815
-0.539893
-0.545157
-0.552272
-0.553386
-0.51068
-0.310158
-0.0211301
0.103196
0.0379556
0.355396
-0.0736897
-0.169007
-0.258624
-0.469295
-0.566686
-0.569157
-0.585535
-0.604647
-0.611653
-0.596675
-0.580078
-0.575216
-0.540133
-0.4517
-0.267795
0.0149735
0.122058
0.0418111
0.511631
0.132557
-0.126584
-0.383612
-0.561067
-0.603938
-0.589633
-0.591147
-0.587873
-0.572
-0.522539
-0.506503
-0.521012
-0.423774
-0.268374
-0.190884
-0.0639395
0.0733841
0.0189082
0.451414
0.106998
-0.220343
-0.549634
-0.669016
-0.684008
-0.651888
-0.620777
-0.530515
-0.492375
-0.453642
-0.431936
-0.414837
-0.359071
-0.37215
-0.400873
-0.335328
-0.0899948
-0.0316291
0.0998888
-0.139117
-0.477312
-0.691654
-0.770758
-0.813387
-0.803072
-0.79225
-0.705516
-0.686833
-0.687939
-0.674842
-0.597763
-0.589
-0.662554
-0.670422
-0.633992
-0.366623
-0.125812
-0.440874
-0.539001
-0.704064
-0.809372
-0.867032
-0.906157
-0.909406
-0.912045
-0.886168
-0.886847
-0.886468
-0.884339
-0.864331
-0.85865
-0.873713
-0.845756
-0.802104
-0.579535
-0.273109
-0.757747
-0.781092
-0.849927
-0.899464
-0.929844
-0.950773
-0.954158
-0.955429
-0.954309
-0.959903
-0.960866
-0.960486
-0.958479
-0.951809
-0.941134
-0.913859
-0.858862
-0.702227
-0.463289
-0.899245
-0.908005
-0.932591
-0.951463
-0.962604
-0.969719
-0.970843
-0.97228
-0.976501
-0.980657
-0.982464
-0.983229
-0.982785
-0.979858
-0.974631
-0.96303
-0.931688
-0.84773
-0.684171
-0.955768
-0.959568
-0.966641
-0.972513
-0.976039
-0.978915
-0.9792
-0.98002
-0.983151
-0.986702
-0.989588
-0.990934
-0.991176
-0.991704
-0.99184
-0.990653
-0.979995
-0.947668
-0.868957
-0.977358
-0.978878
-0.981119
-0.983503
-0.984778
-0.986029
-0.985791
-0.984905
-0.984957
-0.986673
-0.990049
-0.992519
-0.994166
-0.995619
-0.99675
-0.997383
-0.995546
-0.98818
-0.971456
-0.989111
-0.989439
-0.989898
-0.990564
-0.991237
-0.992315
-0.991995
-0.989791
-0.987616
-0.987048
-0.989323
-0.9915
-0.993204
-0.994988
-0.996867
-0.998073
-0.998574
-0.998511
-0.997372
-0.995687
-0.995567
-0.995434
-0.995484
-0.995907
-0.996472
-0.996108
-0.994284
-0.991444
-0.989668
-0.989228
-0.990069
-0.991299
-0.993245
-0.995798
-0.99743
-0.998471
-0.999002
-0.999181
-0.998521
-0.998416
-0.998261
-0.998193
-0.998343
-0.998637
-0.998467
-0.997598
-0.995706
-0.993635
-0.992108
-0.991585
-0.991631
-0.992774
-0.99526
-0.997362
-0.998517
-0.998935
-0.999045
-0.999457
-0.999461
-0.999434
-0.999433
-0.999408
-0.999505
-0.999475
-0.999235
-0.998426
-0.99717
-0.995686
-0.994585
-0.993763
-0.993419
-0.995384
-0.997326
-0.998571
-0.99903
-0.999135
-0.999747
-0.999803
-0.999825
-0.999846
-0.999819
-0.999824
-0.999816
-0.999763
-0.999522
-0.999028
-0.998133
-0.997179
-0.996058
-0.99489
-0.996013
-0.997414
-0.998601
-0.999129
-0.999215
-0.999862
-0.999911
-0.999942
-0.999961
-0.999959
-0.999947
-0.999924
-0.999916
-0.999875
-0.999763
-0.99942
-0.998912
-0.99805
-0.996796
-0.99708
-0.99772
-0.998726
-0.999254
-0.999276
-0.999959
-0.99997
-0.999983
-0.999994
-0.999995
-0.999991
-0.999972
-0.999964
-0.999963
-0.999954
-0.999868
-0.999722
-0.999338
-0.998498
-0.998373
-0.998531
-0.999116
-0.999406
-0.999325
-0.999998
-1
-1
-1
-1
-1
-0.999992
-0.999987
-0.999986
-0.999989
-0.999978
-0.999954
-0.999865
-0.999537
-0.999354
-0.999354
-0.999534
-0.999535
-0.999364
-1.00001
-1.00001
-1.00001
-1
-1
-1
-1
-0.999997
-0.999996
-0.999996
-0.999997
-0.999998
-0.99998
-0.999865
-0.999819
-0.999762
-0.99976
-0.999619
-0.999394
-1.00001
-1.00001
-1.00001
-1
-1
-1
-1
-1
-1
-1
-1
-1
-1
-0.999968
-0.999961
-0.999922
-0.999853
-0.999657
-0.999421
-1
-1
-1
-1
-1
-1
-1
-1
-1
-1
-1
-1
-1
-0.999997
-0.999995
-0.999969
-0.999885
-0.999676
-0.999447
-1
-1
-1
-1
-1
-1
-1
-1
-1
-1
-1
-1
-1
-1
-1
-0.999984
-0.999909
-0.999711
-0.999475
-0.999999
-1
-1
-1
-1
-1
-1
-1
-1
-1
-1
-1
-1
-1
-1
-0.999987
-0.999918
-0.999731
-0.999496
-0.999999
-1
-1
-1
-1
-1
-1
-1
-1
-1
-1
-1
-1
-1
-1
-0.99999
-0.999922
-0.99973
-0.999512
-1
-1
-1
-1
-1
-1
-1
-1
-1
-1
-1
-1
-1
-1
-1
-0.999993
-0.999936
-0.999763
-0.999536
-1
-1
-1
-1
-1
-1
-1
-1
-1
-1
-1
-1
-1
-1
-1
-0.999995
-0.999939
-0.999771
-0.999553
-1
-1
-1
-1
-1
-1
-1
-1
-1
-1
-1
-1
-1
-1
-1
-0.999995
-0.999944
-0.999784
-0.999572
-1
-1
-1
-1
-1
-1
-1
-1
-1
-1
-1
-1
-1
-1
-1
-0.999997
-0.999953
-0.999808
-0.999598
-1
-1
-1
-1
-1
-1
-1
-1
-1
-1
-1
-1
-1
-1
-1
-0.999998
-0.999963
-0.999833
-0.999625
-1
-1
-1
-1
-1
-1
-1
-1
-0.999999
-0.999998
-0.999998
-0.999998
-0.999999
-1
-1
-1
-0.999975
-0.999862
-0.999639
-1
-1
-1
-1
-1
-1
-1
-0.999999
-0.999996
-0.999994
-0.999993
-0.999994
-0.999995
-0.999997
-1
-0.999999
-0.999973
-0.999843
-0.999617
-1
-1
-1
-1
-1
-1
-0.999999
-0.999995
-0.999989
-0.999984
-0.999981
-0.999984
-0.999987
-0.999991
-0.999998
-0.999998
-0.99997
-0.999836
-0.999624
-1
-1
-1
-1
-1
-0.999997
-0.999992
-0.999983
-0.999971
-0.999963
-0.999962
-0.999967
-0.999974
-0.999983
-0.999994
-0.999996
-0.999968
-0.999831
-0.99961
-1
-1
-1
-1
-0.999996
-0.999987
-0.999975
-0.999963
-0.999949
-0.999932
-0.999935
-0.999945
-0.999959
-0.999972
-0.999989
-0.999994
-0.999964
-0.999807
-0.999574
-1
-1
-1
-0.999999
-0.999991
-0.999977
-0.999953
-0.999934
-0.999916
-0.999902
-0.999905
-0.999917
-0.999938
-0.999961
-0.999985
-0.999992
-0.999956
-0.999762
-0.999569
-1
-1
-1
-0.999995
-0.999984
-0.999966
-0.999935
-0.999904
-0.999883
-0.999875
-0.999877
-0.999889
-0.999916
-0.999947
-0.999978
-0.999988
-0.999956
-0.999787
-0.999619
-1
-1
-0.999999
-0.999992
-0.999978
-0.999959
-0.999924
-0.999886
-0.999864
-0.999862
-0.999867
-0.999879
-0.999906
-0.99994
-0.999973
-0.999985
-0.999956
-0.999821
-0.999693
-1
-1
-0.999994
-0.999983
-0.999962
-0.999934
-0.999898
-0.999869
-0.999863
-0.999868
-0.999872
-0.99988
-0.999903
-0.999936
-0.999969
-0.999982
-0.999957
-0.99984
-0.999686
-1
-0.999998
-0.999988
-0.999971
-0.99994
-0.9999
-0.999873
-0.999865
-0.999873
-0.999883
-0.999884
-0.999883
-0.999903
-0.999936
-0.999967
-0.999981
-0.999955
-0.999834
-0.999673
-1
-0.999997
-0.999984
-0.999961
-0.999923
-0.999879
-0.999863
-0.999873
-0.999892
-0.999901
-0.999899
-0.99989
-0.999902
-0.999934
-0.999963
-0.999979
-0.999952
-0.999838
-0.99968
-1
-0.999995
-0.999982
-0.999964
-0.999934
-0.999891
-0.999869
-0.999886
-0.999906
-0.999914
-0.999909
-0.999899
-0.999905
-0.999933
-0.999959
-0.999975
-0.999948
-0.999843
-0.999695
-1
-0.999994
-0.99998
-0.999964
-0.999945
-0.999912
-0.999882
-0.999896
-0.999914
-0.999921
-0.999917
-0.999911
-0.999912
-0.999936
-0.999957
-0.99997
-0.99995
-0.999871
-0.999759
)
;

boundaryField
{
    leftWall
    {
        type            zeroGradient;
    }
    rightWall
    {
        type            zeroGradient;
    }
    lowerWall
    {
        type            zeroGradient;
    }
    atmosphere
    {
        type            zeroGradient;
    }
    defaultFaces
    {
        type            empty;
    }
}


// ************************************************************************* //
