/*--------------------------------*- C++ -*----------------------------------*\
| =========                 |                                                 |
| \\      /  F ield         | foam-extend: Open Source CFD                    |
|  \\    /   O peration     | Version:     4.1                                |
|   \\  /    A nd           | Web:         http://www.foam-extend.org         |
|    \\/     M anipulation  |                                                 |
\*---------------------------------------------------------------------------*/
FoamFile
{
    version     2.0;
    format      ascii;
    class       volScalarField;
    location    "1";
    object      C_0;
}
// * * * * * * * * * * * * * * * * * * * * * * * * * * * * * * * * * * * * * //

dimensions      [0 0 0 0 0 0 0];

internalField   nonuniform List<scalar> 
2268
(
0.987309
0.983896
0.978795
0.976294
0.977251
0.979612
0.982478
0.984282
0.98516
0.986144
0.987419
0.989301
0.99332
0.996131
0.999094
1.00165
1.0009
0.999586
1.00118
1.00484
1.00733
1.00798
1.00794
0.983453
0.980075
0.975105
0.972844
0.974368
0.977156
0.980555
0.982631
0.983705
0.984886
0.985725
0.986374
0.988716
0.988641
0.99153
0.994189
0.993109
0.9926
0.997003
1.00288
1.00667
1.00805
1.00835
0.975098
0.97177
0.967139
0.965308
0.968193
0.971879
0.976275
0.97871
0.980102
0.981334
0.98043
0.976922
0.972805
0.964951
0.968534
0.971789
0.971688
0.975091
0.986943
0.998319
1.00484
1.00812
1.00937
0.962572
0.959458
0.955262
0.95404
0.959176
0.964245
0.969547
0.971818
0.972894
0.973281
0.968198
0.955265
0.93463
0.911765
0.91581
0.921356
0.928747
0.944423
0.969084
0.990123
1.00107
1.0078
1.01113
0.946198
0.943577
0.939796
0.939519
0.947442
0.954163
0.959209
0.960139
0.958714
0.955748
0.943035
0.910326
0.857714
0.80731
0.806047
0.821197
0.852097
0.894315
0.937711
0.975403
0.992661
1.00554
1.01335
0.926343
0.92442
0.920957
0.921905
0.932822
0.940697
0.943535
0.939847
0.931767
0.91925
0.894453
0.826831
0.720086
0.624903
0.610101
0.651873
0.727995
0.812123
0.883581
0.946665
0.973028
0.996947
1.01421
0.903418
0.902178
0.898729
0.900974
0.91429
0.921646
0.9195
0.904614
0.881035
0.850009
0.80719
0.684693
0.515854
0.375435
0.342601
0.416638
0.544951
0.684521
0.790116
0.88878
0.930668
0.972534
1.00912
0.877661
0.876873
0.87279
0.875277
0.889028
0.893991
0.882457
0.845368
0.788184
0.727317
0.66314
0.473524
0.277686
0.129245
0.10007
0.176263
0.322271
0.505229
0.635654
0.781314
0.848449
0.915198
0.985597
-0.182707
-0.177281
-0.173708
-0.16065
-0.150533
-0.117858
-0.0701837
-0.0347409
0.0165412
0.0518195
0.061828
0.0720003
0.0777658
0.0776603
0.053451
0.0273327
0.0351118
0.0256199
0.016351
-0.184512
-0.182191
-0.184833
-0.176
-0.191165
-0.186958
-0.132982
-0.10822
-0.0687692
-0.0195016
-0.00545103
0.0168294
0.0439489
0.0668891
0.0610474
0.0378998
0.0302717
0.00348762
-0.0240472
-0.187751
-0.18975
-0.192139
-0.182454
-0.233821
-0.275302
-0.218021
-0.207329
-0.195279
-0.141379
-0.126748
-0.0954072
-0.0399952
0.0179196
0.0485514
0.0535396
0.0326517
-0.0151067
-0.0716708
-0.191188
-0.196337
-0.189116
-0.181651
-0.260956
-0.342111
-0.291163
-0.287458
-0.297447
-0.263722
-0.25529
-0.228338
-0.162173
-0.0819096
-0.00932811
0.0544903
0.0486972
-0.0122996
-0.0953365
-0.195228
-0.200292
-0.180207
-0.180625
-0.275224
-0.382854
-0.356346
-0.346196
-0.358561
-0.354716
-0.353943
-0.339069
-0.286916
-0.211659
-0.116787
0.0189976
0.066192
0.00871637
-0.0927219
-0.20641
-0.20605
-0.174531
-0.188718
-0.287692
-0.410927
-0.417587
-0.401987
-0.402519
-0.411426
-0.414829
-0.412121
-0.386299
-0.337095
-0.24847
-0.0592752
0.0696064
0.0351684
-0.0683621
-0.23185
-0.218881
-0.180755
-0.20374
-0.300924
-0.435909
-0.466099
-0.460588
-0.449358
-0.452557
-0.453076
-0.459121
-0.453017
-0.43359
-0.369253
-0.162097
0.049754
0.0606236
-0.0319069
-0.227409
-0.235869
-0.199065
-0.21816
-0.312674
-0.456793
-0.496599
-0.512604
-0.497468
-0.4897
-0.486084
-0.495827
-0.499427
-0.49653
-0.454212
-0.252366
0.0169486
0.0811577
0.00183053
0.832679
0.831771
0.825358
0.824577
0.835809
0.832347
0.797233
0.700571
0.54982
0.425251
0.332284
0.086333
-0.0311
-0.0877876
-0.0906124
-0.063467
0.0116898
0.156886
0.314528
0.510228
0.637122
0.747425
0.886219
0.752135
0.74411
0.733819
0.718672
0.722807
0.688129
0.583631
0.330007
0.0356205
-0.116642
-0.149816
-0.16889
-0.108881
-0.0406006
0.00121953
0.0134411
0.00477943
-0.00383913
0.0371499
0.0688018
0.171836
0.277273
0.487401
0.524812
0.524919
0.541517
0.538054
0.519294
0.416089
0.195846
-0.079553
-0.223631
-0.250444
-0.216521
-0.173784
-0.128073
-0.0327621
0.0276998
0.054812
0.0672859
0.078693
0.0779832
0.0609036
0.082098
0.14263
0.2701
-0.14742
-0.0522201
0.0788171
0.184837
0.203821
0.0842225
-0.167443
-0.276905
-0.317309
-0.321443
-0.335978
-0.336332
-0.383416
-0.306221
-0.212363
-0.150955
-0.098921
-0.00504951
0.0541437
0.0850532
0.115854
0.19947
0.27183
-0.532875
-0.513335
-0.453059
-0.3412
-0.184067
-0.141134
-0.300626
-0.37389
-0.419249
-0.434552
-0.483066
-0.509244
-0.523368
-0.488606
-0.461434
-0.44184
-0.403852
-0.338379
-0.20498
-0.0941955
0.0125816
0.183775
0.292308
-0.577786
-0.585489
-0.582497
-0.536858
-0.40654
-0.287246
-0.39535
-0.464005
-0.516317
-0.53993
-0.557759
-0.55803
-0.566805
-0.577422
-0.602539
-0.612596
-0.6117
-0.614203
-0.571706
-0.478997
-0.391552
-0.302511
-0.230174
-0.579973
-0.593313
-0.608183
-0.58589
-0.51236
-0.40852
-0.480903
-0.532245
-0.563237
-0.582123
-0.601316
-0.616365
-0.660925
-0.704136
-0.743623
-0.766431
-0.775278
-0.78105
-0.778118
-0.736868
-0.718987
-0.718809
-0.707429
-0.586304
-0.606841
-0.619547
-0.602486
-0.544962
-0.498867
-0.541944
-0.565468
-0.585975
-0.617322
-0.656886
-0.703733
-0.772454
-0.817585
-0.853343
-0.874806
-0.885528
-0.884842
-0.888876
-0.88729
-0.88353
-0.888665
-0.882013
-0.590818
-0.614631
-0.625265
-0.614982
-0.579352
-0.561642
-0.575115
-0.581758
-0.609729
-0.657722
-0.715271
-0.77908
-0.840047
-0.880865
-0.910566
-0.924708
-0.937343
-0.935666
-0.939664
-0.948211
-0.951329
-0.95172
-0.946124
-0.592109
-0.612474
-0.623471
-0.622095
-0.602527
-0.590574
-0.590325
-0.597836
-0.636322
-0.687511
-0.744715
-0.81544
-0.873686
-0.914315
-0.941396
-0.953222
-0.960833
-0.962394
-0.965841
-0.972717
-0.977609
-0.977134
-0.976043
-0.587624
-0.60492
-0.613794
-0.618647
-0.606922
-0.597649
-0.595694
-0.607819
-0.647605
-0.719948
-0.7962
-0.86607
-0.917918
-0.944185
-0.958481
-0.968148
-0.973251
-0.976763
-0.980571
-0.985139
-0.988835
-0.988976
-0.990246
-0.5961
-0.609586
-0.611926
-0.611867
-0.60726
-0.60226
-0.604936
-0.634924
-0.680389
-0.769154
-0.860843
-0.914163
-0.938569
-0.952056
-0.962373
-0.9707
-0.97667
-0.981063
-0.985019
-0.989046
-0.993141
-0.994607
-0.995932
-0.60688
-0.619194
-0.619519
-0.617352
-0.615997
-0.615589
-0.633499
-0.68077
-0.716924
-0.803406
-0.88302
-0.916066
-0.93065
-0.945203
-0.959292
-0.970744
-0.978781
-0.984137
-0.98886
-0.992742
-0.995787
-0.9971
-0.99796
-0.615595
-0.637768
-0.641382
-0.64331
-0.648376
-0.655736
-0.692058
-0.747061
-0.75877
-0.814359
-0.869081
-0.902035
-0.923408
-0.941501
-0.957815
-0.970621
-0.978161
-0.982939
-0.987954
-0.992554
-0.995935
-0.997858
-0.998744
-0.620354
-0.661987
-0.680456
-0.693938
-0.703992
-0.736634
-0.788376
-0.831926
-0.832907
-0.858056
-0.893396
-0.912439
-0.930538
-0.946
-0.960096
-0.972783
-0.982385
-0.985811
-0.988322
-0.991014
-0.993898
-0.996847
-0.998496
-0.620067
-0.681689
-0.727725
-0.758898
-0.774057
-0.803967
-0.85794
-0.887691
-0.895754
-0.906522
-0.922079
-0.939418
-0.948595
-0.958008
-0.966262
-0.975422
-0.984779
-0.989853
-0.991904
-0.99309
-0.994723
-0.996691
-0.998246
-0.618045
-0.689278
-0.753896
-0.796629
-0.816171
-0.841937
-0.876328
-0.898516
-0.916061
-0.930533
-0.94216
-0.958264
-0.964689
-0.971637
-0.975265
-0.978182
-0.983019
-0.989634
-0.993867
-0.995195
-0.996322
-0.997743
-0.998939
-0.616297
-0.689365
-0.763129
-0.813764
-0.840405
-0.870711
-0.893884
-0.913405
-0.936267
-0.951862
-0.963995
-0.977066
-0.982556
-0.984324
-0.983516
-0.983846
-0.986553
-0.99168
-0.995689
-0.997389
-0.998079
-0.99881
-0.999387
-0.616355
-0.688478
-0.765569
-0.823015
-0.857159
-0.882828
-0.896556
-0.917177
-0.941817
-0.965245
-0.977858
-0.986106
-0.990459
-0.990468
-0.988122
-0.987288
-0.989033
-0.992709
-0.996169
-0.998097
-0.998931
-0.999443
-0.999724
-0.61842
-0.691445
-0.773027
-0.835309
-0.872649
-0.888791
-0.885999
-0.907677
-0.934706
-0.969855
-0.987388
-0.992615
-0.994156
-0.9935
-0.99092
-0.988829
-0.989156
-0.99115
-0.99463
-0.997633
-0.999015
-0.999588
-0.999821
-0.625073
-0.697352
-0.770812
-0.832477
-0.871403
-0.877589
-0.861681
-0.884078
-0.916431
-0.969967
-0.98899
-0.994803
-0.995373
-0.994676
-0.992529
-0.990019
-0.989594
-0.990592
-0.993438
-0.996952
-0.998859
-0.999599
-0.999866
-0.629223
-0.692479
-0.757542
-0.823619
-0.861172
-0.855106
-0.825675
-0.836107
-0.888145
-0.960062
-0.987661
-0.99601
-0.996149
-0.995055
-0.992917
-0.990942
-0.990758
-0.991318
-0.99301
-0.995895
-0.998322
-0.999405
-0.99978
-0.629982
-0.679536
-0.729746
-0.79742
-0.834535
-0.823244
-0.798577
-0.804693
-0.869213
-0.954703
-0.990206
-0.997608
-0.997145
-0.995659
-0.993595
-0.992855
-0.9937
-0.994432
-0.995484
-0.99721
-0.998784
-0.99956
-0.999844
-0.630233
-0.662343
-0.696474
-0.752965
-0.785471
-0.776996
-0.77076
-0.78796
-0.8614
-0.95195
-0.990861
-0.998187
-0.998041
-0.997127
-0.99615
-0.996481
-0.99722
-0.997238
-0.997375
-0.998213
-0.9992
-0.999746
-0.999918
-0.632824
-0.660038
-0.689262
-0.719051
-0.739612
-0.746892
-0.756429
-0.784513
-0.85861
-0.951405
-0.991691
-0.998495
-0.998482
-0.998387
-0.99852
-0.998888
-0.999247
-0.999168
-0.999016
-0.999301
-0.999659
-0.999886
-0.999964
-0.641356
-0.674783
-0.715066
-0.730349
-0.739511
-0.750718
-0.772487
-0.82205
-0.904174
-0.97509
-0.996261
-0.998711
-0.998566
-0.998775
-0.999306
-0.999684
-0.999872
-0.999848
-0.999783
-0.999796
-0.9999
-0.999968
-0.999989
-0.662287
-0.701439
-0.749871
-0.770512
-0.779305
-0.802394
-0.843811
-0.891012
-0.944966
-0.983511
-0.996642
-0.998162
-0.998347
-0.998737
-0.99948
-0.999851
-0.99998
-1
-0.999981
-0.99996
-0.999986
-0.999998
-0.999999
-0.706124
-0.738302
-0.780965
-0.814204
-0.845378
-0.873458
-0.920378
-0.947961
-0.975169
-0.991682
-0.99761
-0.997837
-0.997985
-0.998285
-0.999089
-0.999696
-0.999865
-0.99995
-0.999988
-0.999994
-1
-1
-1
-0.765718
-0.783394
-0.815553
-0.853145
-0.898661
-0.929618
-0.964819
-0.981814
-0.993552
-0.997378
-0.997843
-0.997619
-0.997752
-0.997942
-0.998456
-0.999273
-0.999615
-0.99983
-0.999944
-0.999982
-0.999995
-0.999999
-1
-0.802923
-0.809619
-0.837304
-0.880723
-0.926977
-0.95527
-0.980568
-0.993818
-0.997594
-0.997896
-0.997587
-0.997556
-0.997678
-0.997804
-0.998145
-0.998941
-0.999381
-0.999716
-0.999898
-0.999964
-0.999988
-0.999997
-0.999999
-0.821506
-0.827581
-0.858012
-0.902582
-0.945768
-0.970436
-0.986617
-0.995952
-0.99806
-0.99775
-0.997605
-0.997767
-0.997764
-0.997762
-0.997969
-0.998569
-0.99916
-0.999628
-0.999868
-0.999955
-0.999985
-0.999995
-0.999998
-0.833349
-0.842525
-0.877074
-0.92468
-0.961516
-0.977481
-0.988094
-0.99545
-0.997996
-0.997889
-0.997911
-0.9981
-0.998002
-0.997857
-0.997939
-0.998435
-0.999067
-0.99959
-0.999855
-0.999953
-0.999985
-0.999995
-0.999998
-0.845547
-0.861208
-0.899791
-0.943124
-0.973793
-0.98751
-0.993809
-0.996966
-0.998249
-0.998209
-0.998226
-0.998296
-0.998121
-0.997942
-0.998044
-0.998496
-0.999177
-0.999664
-0.999888
-0.999967
-0.99999
-0.999997
-0.999999
-0.859654
-0.884512
-0.925304
-0.962685
-0.983646
-0.992315
-0.996067
-0.997839
-0.998634
-0.998671
-0.998589
-0.998389
-0.998141
-0.998021
-0.998252
-0.998746
-0.999259
-0.999638
-0.999881
-0.999971
-0.999994
-0.999999
-1
-0.874967
-0.909178
-0.948278
-0.97728
-0.991095
-0.996089
-0.997845
-0.998657
-0.999003
-0.998945
-0.998714
-0.998293
-0.998095
-0.998203
-0.998616
-0.999175
-0.999585
-0.999814
-0.999945
-0.99999
-1
-1
-1
-0.888566
-0.92963
-0.965007
-0.986135
-0.994748
-0.997552
-0.998504
-0.998857
-0.998744
-0.998545
-0.998312
-0.998116
-0.998289
-0.998714
-0.999118
-0.99958
-0.999817
-0.999928
-0.999985
-1
-1
-1
-1
-0.902177
-0.948203
-0.97885
-0.992262
-0.99656
-0.997795
-0.998192
-0.998362
-0.998122
-0.998044
-0.998116
-0.998405
-0.998911
-0.999441
-0.999627
-0.999854
-0.999947
-0.999985
-1
-1
-1
-1
-1
-0.916364
-0.965147
-0.989031
-0.995819
-0.997284
-0.997657
-0.997894
-0.998056
-0.998118
-0.998413
-0.998956
-0.999335
-0.999611
-0.99982
-0.999879
-0.999965
-0.999993
-1
-1
-1
-1
-1
-1
-0.933752
-0.978942
-0.994394
-0.997348
-0.997822
-0.998168
-0.998626
-0.998985
-0.999244
-0.999514
-0.999732
-0.999849
-0.999951
-0.999991
-0.999986
-1
-1
-1
-1
-1
-1
-1
-1
-0.949425
-0.989162
-0.997784
-0.998662
-0.99889
-0.999241
-0.999548
-0.999742
-0.999845
-0.999942
-0.999982
-1
-1.00002
-1.00003
-1.00001
-1.00001
-1
-1
-1
-1
-1
-1
-1
-0.969823
-0.996741
-0.999712
-0.999611
-0.999659
-0.9998
-0.99989
-0.999943
-0.999974
-1.00001
-1.00003
-1.00003
-1.00004
-1.00003
-1.00002
-1.00001
-1
-1
-1
-1
-1
-1
-1
-0.990323
-0.999846
-1.00018
-0.999878
-0.999854
-0.999913
-0.999947
-0.999966
-0.999981
-1.00001
-1.00003
-1.00004
-1.00004
-1.00003
-1.00002
-1.00001
-1
-1
-1
-1
-1
-1
-1
0.90313
0.924388
0.912684
0.761537
0.63159
0.722821
0.783148
0.729471
0.386099
0.480537
0.579872
0.617267
0.352962
0.435781
0.526692
0.555524
0.37512
0.408315
0.413025
0.343955
-0.149947
-0.126046
-0.152864
-0.24847
-0.690197
-0.691005
-0.705098
-0.726619
-0.878792
-0.881183
-0.88527
-0.891035
-0.946695
-0.948332
-0.95014
-0.952614
-0.976671
-0.976904
-0.976844
-0.976995
-0.99078
-0.990641
-0.99005
-0.989541
-0.996342
-0.996365
-0.996163
-0.995931
-0.998363
-0.99851
-0.998524
-0.998508
-0.999115
-0.999269
-0.99933
-0.999362
-0.999169
-0.999461
-0.99961
-0.999669
-0.999055
-0.99943
-0.999665
-0.999786
-0.999483
-0.999715
-0.99986
-0.999934
-0.999699
-0.999843
-0.999935
-0.999983
-0.999872
-0.999939
-0.999979
-1
-0.999916
-0.999958
-0.999984
-0.999998
-0.999942
-0.999972
-0.999989
-0.999998
-0.999906
-0.999953
-0.999979
-0.999993
-0.999935
-0.999966
-0.999984
-0.999993
-0.999968
-0.999983
-0.999992
-0.999996
-0.999988
-0.999994
-0.999997
-0.999999
-0.999997
-0.999999
-1
-1
-1
-1
-1
-1
-1
-1
-1
-1
-1
-1
-1
-1
-1
-1
-1
-1
-0.999999
-1
-1
-1
-0.999999
-1
-1
-1
-1
-1
-1
-1
-1
-1
-1
-1
-1
-1
-1
-1
-1
-1
-1
-1
-1
-1
-1
-1
-1
-1
-1
-1
-1
-1
-1
-1
-1
-1
-1
-1
-1
-1
-1
-1
-1
-1
-1
-1
-0.00615657
-0.222751
-0.222346
-0.237149
-0.349375
-0.490835
-0.526401
-0.558011
-0.556779
-0.547232
-0.540744
-0.54613
-0.55354
-0.553986
-0.508796
-0.304889
-0.0163474
0.103782
0.0373444
0.343915
-0.0819026
-0.172177
-0.260725
-0.470052
-0.56593
-0.568604
-0.585615
-0.605216
-0.612159
-0.597061
-0.58053
-0.575348
-0.538903
-0.448036
-0.261236
0.0210903
0.122214
0.0408167
0.505779
0.120635
-0.132959
-0.38805
-0.561382
-0.602588
-0.588312
-0.590931
-0.588517
-0.572166
-0.521599
-0.5052
-0.519037
-0.419598
-0.263962
-0.188938
-0.0616605
0.073345
0.0166277
0.444698
0.0947284
-0.228894
-0.553632
-0.668159
-0.681777
-0.649217
-0.619234
-0.529833
-0.491318
-0.452453
-0.430402
-0.411757
-0.356861
-0.37271
-0.403868
-0.335429
-0.0913231
-0.0351246
0.0909137
-0.151419
-0.484958
-0.693442
-0.770338
-0.812373
-0.801125
-0.790655
-0.704183
-0.685433
-0.68852
-0.676067
-0.598566
-0.591462
-0.666465
-0.674295
-0.635646
-0.370016
-0.130488
-0.443184
-0.544382
-0.705914
-0.810147
-0.867395
-0.906141
-0.90867
-0.911362
-0.885753
-0.886528
-0.886996
-0.885243
-0.865491
-0.860826
-0.876146
-0.848209
-0.803955
-0.583639
-0.278603
-0.756
-0.781582
-0.850118
-0.899901
-0.930016
-0.95072
-0.953841
-0.955098
-0.954153
-0.959899
-0.961167
-0.96099
-0.959084
-0.952936
-0.942599
-0.915559
-0.860904
-0.706011
-0.468516
-0.89826
-0.907776
-0.932551
-0.951536
-0.962536
-0.969586
-0.970629
-0.972082
-0.976404
-0.980644
-0.9826
-0.983475
-0.983112
-0.980417
-0.97542
-0.964029
-0.933088
-0.849992
-0.687879
-0.955409
-0.9595
-0.966655
-0.972555
-0.975988
-0.978828
-0.979048
-0.979866
-0.983044
-0.986651
-0.989623
-0.991029
-0.991321
-0.991901
-0.992087
-0.990959
-0.98056
-0.948705
-0.870643
-0.977179
-0.978845
-0.98116
-0.983568
-0.984791
-0.986021
-0.985715
-0.984805
-0.984853
-0.986582
-0.990002
-0.992501
-0.99418
-0.995649
-0.996789
-0.997426
-0.995676
-0.988441
-0.971706
-0.989041
-0.989445
-0.989952
-0.990648
-0.9913
-0.992359
-0.991992
-0.989763
-0.987559
-0.986963
-0.989247
-0.991455
-0.993172
-0.994965
-0.996855
-0.998056
-0.99857
-0.998519
-0.997398
-0.995673
-0.995581
-0.995481
-0.995549
-0.995959
-0.996515
-0.996131
-0.994304
-0.991452
-0.989645
-0.989187
-0.990012
-0.991244
-0.993195
-0.99576
-0.99741
-0.998457
-0.998988
-0.999168
-0.998525
-0.998426
-0.99829
-0.998231
-0.998371
-0.998659
-0.998485
-0.997623
-0.995738
-0.993661
-0.992113
-0.99157
-0.991601
-0.992739
-0.995235
-0.997351
-0.998511
-0.998929
-0.999037
-0.999461
-0.999467
-0.999446
-0.999448
-0.999421
-0.999514
-0.999483
-0.999246
-0.998443
-0.997199
-0.995715
-0.9946
-0.99376
-0.993396
-0.995364
-0.997317
-0.998567
-0.999026
-0.99913
-0.999751
-0.999806
-0.99983
-0.999851
-0.999824
-0.999828
-0.999819
-0.999767
-0.99953
-0.999045
-0.998159
-0.9972
-0.996069
-0.994886
-0.996006
-0.997407
-0.9986
-0.999127
-0.99921
-0.99987
-0.999914
-0.999944
-0.999963
-0.999961
-0.999949
-0.999925
-0.999917
-0.999877
-0.999769
-0.999433
-0.998929
-0.998069
-0.996809
-0.99709
-0.997722
-0.99873
-0.999253
-0.999271
-0.999964
-0.999972
-0.999984
-0.999995
-0.999996
-0.999992
-0.999972
-0.999965
-0.999964
-0.999956
-0.999873
-0.99973
-0.99935
-0.998513
-0.998391
-0.998545
-0.999124
-0.999406
-0.99932
-1
-1
-1
-1
-1
-1
-0.999993
-0.999987
-0.999987
-0.999989
-0.999979
-0.999957
-0.999869
-0.999545
-0.999366
-0.999365
-0.999539
-0.999534
-0.999359
-1.00001
-1.00001
-1.00001
-1
-1
-1
-1
-0.999997
-0.999996
-0.999996
-0.999997
-0.999998
-0.999982
-0.999869
-0.999825
-0.999768
-0.999762
-0.999617
-0.99939
-1.00001
-1.00001
-1
-1
-1
-1
-1
-1
-1
-1
-1
-1
-1
-0.999969
-0.999962
-0.999924
-0.999853
-0.999654
-0.999417
-1
-1
-1
-1
-1
-1
-1
-1
-1
-1
-1
-1
-1
-0.999997
-0.999995
-0.99997
-0.999884
-0.999673
-0.999443
-1
-1
-1
-1
-1
-1
-1
-1
-1
-1
-1
-1
-1
-1
-1
-0.999984
-0.999908
-0.999709
-0.999471
-0.999999
-1
-1
-1
-1
-1
-1
-1
-1
-1
-1
-1
-1
-1
-1
-0.999987
-0.999917
-0.999729
-0.999493
-0.999999
-1
-1
-1
-1
-1
-1
-1
-1
-1
-1
-1
-1
-1
-1
-0.99999
-0.999921
-0.999729
-0.999509
-1
-1
-1
-1
-1
-1
-1
-1
-1
-1
-1
-1
-1
-1
-1
-0.999993
-0.999936
-0.999761
-0.999533
-1
-1
-1
-1
-1
-1
-1
-1
-1
-1
-1
-1
-1
-1
-1
-0.999995
-0.999939
-0.999769
-0.99955
-1
-1
-1
-1
-1
-1
-1
-1
-1
-1
-1
-1
-1
-1
-1
-0.999995
-0.999944
-0.999782
-0.999569
-1
-1
-1
-1
-1
-1
-1
-1
-1
-1
-1
-1
-1
-1
-1
-0.999997
-0.999953
-0.999807
-0.999595
-1
-1
-1
-1
-1
-1
-1
-1
-1
-1
-1
-1
-1
-1
-1
-0.999998
-0.999963
-0.999832
-0.999622
-1
-1
-1
-1
-1
-1
-1
-1
-0.999999
-0.999998
-0.999998
-0.999998
-0.999999
-1
-1
-1
-0.999974
-0.999862
-0.999637
-1
-1
-1
-1
-1
-1
-1
-0.999999
-0.999996
-0.999993
-0.999992
-0.999993
-0.999994
-0.999997
-1
-0.999999
-0.999973
-0.999841
-0.999614
-1
-1
-1
-1
-1
-1
-0.999998
-0.999994
-0.999989
-0.999984
-0.999981
-0.999984
-0.999987
-0.999991
-0.999998
-0.999998
-0.999969
-0.999834
-0.999622
-1
-1
-1
-1
-1
-0.999997
-0.999991
-0.999983
-0.999971
-0.999962
-0.999961
-0.999966
-0.999974
-0.999982
-0.999994
-0.999996
-0.999967
-0.99983
-0.999607
-1
-1
-1
-1
-0.999996
-0.999987
-0.999975
-0.999962
-0.999948
-0.999931
-0.999934
-0.999945
-0.999958
-0.999972
-0.999989
-0.999994
-0.999964
-0.999805
-0.999571
-1
-1
-1
-0.999999
-0.999991
-0.999977
-0.999953
-0.999933
-0.999915
-0.999901
-0.999904
-0.999917
-0.999937
-0.999961
-0.999985
-0.999992
-0.999955
-0.999762
-0.999567
-1
-1
-1
-0.999995
-0.999984
-0.999966
-0.999934
-0.999903
-0.999882
-0.999874
-0.999877
-0.999889
-0.999916
-0.999947
-0.999978
-0.999988
-0.999955
-0.999787
-0.999618
-1
-1
-0.999999
-0.999992
-0.999978
-0.999958
-0.999923
-0.999885
-0.999864
-0.999862
-0.999866
-0.999879
-0.999906
-0.99994
-0.999973
-0.999985
-0.999955
-0.99982
-0.999693
-1
-1
-0.999994
-0.999982
-0.999961
-0.999933
-0.999897
-0.999868
-0.999862
-0.999868
-0.999872
-0.99988
-0.999904
-0.999936
-0.999969
-0.999982
-0.999957
-0.999839
-0.999684
-1
-0.999998
-0.999988
-0.999971
-0.999939
-0.999899
-0.999872
-0.999865
-0.999873
-0.999883
-0.999884
-0.999884
-0.999903
-0.999936
-0.999967
-0.999981
-0.999954
-0.999833
-0.999671
-1
-0.999997
-0.999984
-0.999961
-0.999923
-0.999878
-0.999863
-0.999873
-0.999892
-0.999902
-0.9999
-0.99989
-0.999902
-0.999934
-0.999963
-0.999979
-0.999952
-0.999838
-0.999679
-1
-0.999995
-0.999982
-0.999963
-0.999934
-0.999891
-0.999869
-0.999886
-0.999906
-0.999914
-0.999909
-0.999899
-0.999905
-0.999933
-0.999959
-0.999975
-0.999948
-0.999843
-0.999695
-1
-0.999994
-0.99998
-0.999964
-0.999945
-0.999912
-0.999881
-0.999896
-0.999914
-0.999921
-0.999918
-0.999911
-0.999912
-0.999936
-0.999957
-0.99997
-0.99995
-0.999871
-0.999759
)
;

boundaryField
{
    leftWall
    {
        type            zeroGradient;
    }
    rightWall
    {
        type            zeroGradient;
    }
    lowerWall
    {
        type            zeroGradient;
    }
    atmosphere
    {
        type            zeroGradient;
    }
    defaultFaces
    {
        type            empty;
    }
}


// ************************************************************************* //
