/*--------------------------------*- C++ -*----------------------------------*\
| =========                 |                                                 |
| \\      /  F ield         | foam-extend: Open Source CFD                    |
|  \\    /   O peration     | Version:     4.1                                |
|   \\  /    A nd           | Web:         http://www.foam-extend.org         |
|    \\/     M anipulation  |                                                 |
\*---------------------------------------------------------------------------*/
FoamFile
{
    version     2.0;
    format      ascii;
    class       volScalarField;
    location    "1";
    object      p;
}
// * * * * * * * * * * * * * * * * * * * * * * * * * * * * * * * * * * * * * //

dimensions      [1 -1 -2 0 0 0 0];

internalField   nonuniform List<scalar> 
2268
(
1022.35
1020.64
1014.49
1007.95
1005.77
979.304
971.71
952.417
932.396
916.596
897.64
857.841
880.997
857.9
845.802
842.02
840.653
839.339
854.338
840.361
864.363
872.994
873.023
964.306
961.663
957.477
951.328
946.324
922.432
913.295
892.943
867.453
858.866
835.911
805.837
813.983
799.377
785.96
778.968
778.357
783.069
793.314
793.978
793.714
816.876
811.216
907.098
904.194
899.943
891.464
888.672
863.097
855.023
836.555
823.006
798.75
777.366
745.998
751.856
739.261
717.366
725.675
716.35
711.421
715.87
741.346
741.069
751.243
756.479
849.275
846.413
843.616
834.584
834.533
807.963
794.037
775.596
759.394
745.78
709.145
705.766
672.674
677.984
665.297
647.965
658.746
668.936
654.748
685.12
666.985
698.582
685.843
792.965
793.742
785.213
780.244
766.371
761.418
733.831
725.856
696.934
681.037
665.436
640.799
621.288
631.857
579.794
605.663
605.538
604.683
597.614
627.198
609.36
621.561
644.291
736.692
730.897
734.29
725.888
717.659
702.044
680.888
664.482
651.385
617.79
613.98
573.097
567.959
545.541
553.618
545.462
550.528
543.652
543.635
563.957
557.268
575.787
542.466
682.596
685.72
670.543
660.859
654.709
651.218
626.877
612.164
588.985
570.744
562.423
529.966
512.806
515.222
478.708
492.419
500.119
492.484
480.098
509.065
486.886
508.395
485.531
628.781
627.697
631.283
627.927
600.353
593.447
569.698
556.888
537.07
507.622
510.863
474.4
477.911
471.846
450.23
444.745
445.002
448.557
428.078
430.374
448.771
454.376
382.472
476.425
413.245
365.204
352.195
410.396
407.151
381.533
369.231
355.751
340.566
344.502
358.315
364.857
389.005
398.713
414.07
453.549
458.131
476.881
455.15
358.953
307.883
325.789
373.7
379.137
355.431
342.861
326.487
309.21
314.466
329.848
331.885
353.488
364.821
385.106
419.123
424
446.41
412.137
310.601
266.817
296.646
319.014
347.168
327.548
315.038
297.362
281.018
283.07
295.927
303.324
314.775
343.329
353.806
388.796
399.215
416.509
381.983
261.277
218.038
215.834
272.942
310.688
298.581
289.82
274.229
251.609
257.916
267.277
276.886
289.484
302.021
329.037
362.753
369.037
390.569
350.529
226.35
171.644
175.358
275.788
274.957
268.155
263.48
252.462
229.462
233.593
248.195
249.326
263.331
278.37
295.734
334.16
345.322
365.245
328.934
202.144
125.675
140.087
219.634
246.099
239.373
230.356
233.622
208.565
213.674
226.117
232.663
241.995
251.861
270.092
304.681
319.913
339.45
316.7
193.451
100.265
105.246
193.078
214.737
209.176
200.146
206.876
193.996
184.117
199.284
217.226
219.824
229.922
243.163
274.753
297.297
315.768
310.921
179.806
106.625
125.755
179.368
187.313
194.096
180.729
182.9
175.179
163.336
190.529
200.929
204.318
211.478
219.997
241.695
268.661
292.455
547.888
545.289
537.975
540.255
530.449
520.72
495.592
471.964
453.57
444.479
430.17
428.493
415.993
418.077
405.978
396.921
378.346
382.372
377.088
370.879
389.408
362.245
342.808
437.998
442.497
444.994
425.54
426.562
411.951
396.065
383.671
375.172
366.94
350.206
345.51
350.81
353.219
331.689
323.21
295.464
295.274
279.028
312.292
245.011
297.216
251.838
344.62
355.863
353.406
350.256
351.792
338.016
329.082
315.574
312.713
310.823
261.433
301.65
274.496
277.788
266.186
261.07
227.897
226.967
223.716
231.2
244.239
235.542
154.777
265.189
257.883
270.372
269.909
277.295
272.71
269.268
258.605
247.783
249.277
235.218
205.935
215.166
211.888
198.693
146.298
150.579
167.275
166.827
190.347
140.741
112.756
67.8911
231.001
214.717
207.167
208.3
218.727
231.904
227.218
216.832
205.117
191.073
190.834
175.006
167.513
174.99
117.184
112.328
135.657
134.444
99.7505
62.6802
67.9157
78.1965
48.9874
195.393
185.013
170.93
156.309
162.682
183.667
187.183
177.617
167.998
150.991
148.636
135.616
120.242
114.097
86.7799
73.4543
84.7131
59.3419
19.0728
52.435
50.5133
27.1062
17.0628
140.91
107.193
127.639
119.442
137.616
144.516
150.542
147.029
142.135
126.765
113.605
92.0248
86.3458
68.1466
53.7969
50.7156
39.0559
27.5767
22.2464
23.1738
25.9031
23.6118
23.5435
125.028
123.118
81.481
91.2239
96.9791
117.949
119.17
116.918
106.096
102.151
66.0388
55.5593
46.7388
40.6467
31.9615
26.8686
23.3738
23.7754
11.5315
17.4052
9.87715
10.0662
9.64249
126.563
103.296
93.6585
85.6066
93.3345
96.0406
97.9728
94.6004
84.6207
75.1737
60.456
42.1262
29.8535
25.0899
22.7999
17.9114
13.2209
13.6936
11.2244
8.64026
9.75117
7.42497
4.32147
98.2901
108.752
99.4728
80.219
94.3106
83.4557
82.0855
73.7432
61.6614
60.3679
39.4217
30.5616
23.5867
20.8283
17.9916
15.4697
13.0284
11.3197
9.14068
5.71335
4.7508
3.96373
3.6413
104.101
98.3082
86.3431
78.0846
65.2147
71.8091
64.5076
65.5355
48.6566
22.076
27.0664
22.9126
18.8744
18.4118
15.7851
13.7637
10.1074
8.12935
5.4357
5.19228
3.51168
2.65607
1.89304
101.258
96.6241
85.7286
82.9698
59.2557
62.86
61.6358
35.8069
37.1447
26.415
19.077
16.2591
15.0993
16.0049
15.257
9.90206
7.40956
6.50932
5.00166
3.9542
3.58761
1.88641
1.06638
103.472
78.1089
83.9011
76.4646
48.5943
60.086
41.0746
48.2201
29.8197
20.5685
10.5275
9.2013
9.46279
11.0703
11.4039
9.36094
5.87477
5.07602
3.11811
2.77334
1.93185
0.822489
0.574125
82.8764
72.7404
61.5832
55.5829
55.3554
46.6839
35.7766
30.4699
24.4078
12.1205
3.32743
9.97707
9.23618
8.4214
7.34402
7.91927
3.32354
5.40684
1.56665
1.50102
1.42973
0.27714
-0.0283092
67.4447
61.072
56.1567
46.9359
36.3886
28.7299
28.538
28.5451
23.2058
19.9429
-5.75849
0.214378
9.65185
7.64851
4.67978
3.58449
2.3592
0.45479
0.223917
-0.0521925
1.11783
-0.405682
-0.784719
52.7154
50.7407
43.2399
40.2712
33.3511
29.3003
21.7249
22.6396
19.0488
16.8726
7.06298
-2.71981
-0.834285
4.63084
2.08709
1.72744
0.126456
-1.27738
0.289502
-0.494015
-0.190773
-0.549061
-1.14939
40.679
40.7586
30.3985
29.3321
26.2146
20.8734
18.4759
9.94979
14.585
6.05497
9.95384
-0.045769
0.29039
1.4019
0.504963
1.08302
-2.34603
-1.92162
-0.991352
-1.94117
-1.67926
-1.12226
-1.43856
32.8315
32.1209
25.9929
25.1815
22.2495
23.3501
21.0978
14.7173
15.0047
4.88221
3.04385
-0.531676
-0.364612
-0.423316
-0.645767
-0.856735
-1.44266
-1.35417
-1.87304
-2.77275
-1.74703
-1.58384
-1.87461
25.4474
23.8231
21.206
20.9243
19.3861
19.634
11.0614
8.93129
8.41859
5.94719
2.05011
-0.163116
-0.323486
-0.840184
-1.5133
-1.38441
-1.55185
-1.95337
-2.27672
-2.36115
-2.15475
-2.19708
-2.0372
19.24
19.8191
17.0376
17.854
16.1126
14.8539
17.5432
4.41607
2.55904
-1.61948
-0.860404
-1.60287
-1.17141
-1.40652
-1.22512
-2.07556
-2.03984
-2.2015
-2.44757
-2.62355
-2.49423
-2.41033
-2.30065
13.4788
12.6253
9.37268
9.62466
8.64003
7.794
4.99699
13.8193
1.08375
-1.69393
-1.01697
-1.16786
-1.45112
-1.71579
-2.07965
-2.39929
-2.52188
-2.65655
-2.66398
-2.93093
-2.63368
-2.68568
-2.47141
7.97569
8.34634
4.06502
5.50043
4.29882
-0.700519
-1.05613
2.15463
-0.473245
2.22977
-1.50221
-2.09969
-1.9721
-2.06692
-2.19221
-2.55854
-2.90367
-3.11587
-3.0569
-3.06148
-2.88499
-2.75478
-2.8517
4.94303
4.43011
3.75951
0.946171
-1.49989
-5.10595
-16.1097
-9.63368
0.725883
-1.13202
-2.11464
-2.45758
-2.37816
-2.33445
-3.29138
-3.53199
-3.26026
-3.42794
-3.38085
-3.37389
-3.39933
-3.23314
-3.19964
1.92452
-0.425101
-0.342844
-0.592161
-3.80202
-1.32419
-2.37475
-22.2901
-3.70104
-2.22244
-2.28431
-2.6684
-2.89236
-3.46401
-3.57275
-3.27009
-3.51946
-3.6127
-3.71787
-3.56747
-3.50676
-3.33527
-3.07638
1.69553
0.373032
2.85228
2.86716
0.699737
-3.21854
-0.611283
-8.6285
-3.98208
-2.46719
-2.66421
-2.81166
-3.09175
-3.61914
-3.32783
-3.44596
-3.58243
-3.65084
-3.66655
-3.64558
-3.4472
-3.30784
-3.21576
4.40036
2.60738
1.42568
-2.77987
3.7803
0.133571
-8.22213
8.58401
-7.05377
-2.89977
-2.88112
-2.97522
-3.11091
-3.21389
-3.448
-3.54545
-3.54934
-3.62976
-3.71559
-3.57209
-3.51314
-3.40605
-3.34826
2.98729
2.78008
3.19225
3.6467
-1.2685
0.86254
-0.582437
-6.65629
-2.95904
-3.02475
-3.0093
-3.01388
-3.25284
-3.44641
-3.72371
-3.62283
-3.76199
-3.72266
-3.68742
-3.64906
-3.6387
-3.59037
-3.52224
1.95771
0.689618
1.28039
-5.85672
5.21542
-7.95187
-4.22804
-5.25803
-3.5646
-3.84755
-3.36361
-3.48277
-3.92986
-3.73044
-3.80968
-3.74734
-3.71832
-3.72889
-3.73287
-3.7297
-3.68295
-3.64865
-3.61542
2.99992
0.66353
0.731819
2.32717
-6.68053
-4.62448
-3.48897
-4.03704
-4.27204
-4.0342
-3.93062
-3.94625
-3.96305
-3.98735
-3.64549
-3.95052
-3.84708
-3.86683
-3.86227
-3.87308
-3.82474
-3.80033
-3.77158
-0.50972
-1.84355
-0.730871
-1.19702
0.548955
-4.57909
-4.52134
-4.1407
-4.22519
-4.36758
-4.47158
-4.41719
-4.35205
-4.27544
-3.95681
-4.02547
-3.99998
-3.99176
-3.99656
-3.98639
-3.96197
-3.91996
-3.87576
-8.87048
-4.74552
-2.22825
-0.261
-1.11779
-3.91212
-4.44099
-4.51952
-4.74352
-4.82166
-4.68724
-5.19155
-4.77699
-4.51563
-4.28551
-4.31351
-4.20079
-4.15274
-4.15272
-4.12506
-4.10654
-4.07918
-4.08749
-6.05163
-6.38398
-5.1432
-8.28545
-4.23505
-5.68469
-5.35093
-4.99209
-4.91608
-5.08041
-5.14566
-4.82489
-5.12293
-4.84466
-4.48718
-4.052
-4.31505
-4.31039
-4.3151
-4.28742
-4.24976
-4.22996
-4.17669
-5.93871
-5.5486
-5.71092
-6.55873
-7.19783
-5.63801
-5.27833
-5.34818
-5.13663
-5.26901
-5.11169
-5.06112
-4.74574
-4.65039
-4.60266
-4.48661
-4.64319
-4.52043
-4.47732
-4.43132
-4.40337
-4.36628
-4.33179
-5.23269
-5.03346
-5.48174
-5.97375
-5.83688
-5.8544
-5.44997
-5.33738
-5.25098
-5.17838
-5.1863
-5.10552
-4.82501
-4.88711
-4.64324
-4.75421
-4.64814
-4.67704
-4.62658
-4.57587
-4.53886
-4.5205
-4.50684
-5.27326
-5.21132
-5.22538
-5.68919
-5.56535
-5.4972
-5.39742
-5.33228
-5.24162
-5.19697
-5.13659
-5.19379
-5.0318
-5.33361
-4.76233
-4.92427
-4.92325
-4.84408
-4.82483
-4.72704
-4.70391
-4.67427
-4.65398
-5.30878
-5.49518
-5.28478
-5.58357
-5.48675
-5.4827
-5.43625
-5.34007
-5.22851
-5.28645
-5.42447
-5.10908
-4.94308
-4.95836
-5.24711
-5.08392
-4.97912
-4.98236
-4.89038
-4.88412
-4.82836
-4.81183
-4.79257
-5.27008
-5.87055
-5.87286
-5.57964
-5.52011
-5.62023
-5.44385
-5.41017
-5.33209
-5.13973
-5.51437
-5.46838
-5.38131
-5.16336
-5.16818
-5.19726
-5.11913
-5.08421
-5.06182
-4.99837
-4.99418
-4.96613
-4.96065
-5.35609
-5.76285
-5.71344
-5.67742
-5.63013
-5.62456
-5.579
-5.4254
-5.4406
-5.63787
-5.35097
-5.5629
-5.41569
-5.5109
-5.36982
-5.21637
-5.26157
-5.20955
-5.20035
-5.14571
-5.12289
-5.10391
-5.10035
-5.81134
-5.65601
-5.65359
-5.64104
-5.70529
-5.56757
-5.64
-5.6245
-5.60558
-5.48249
-5.50075
-5.68732
-5.57514
-5.45798
-5.46181
-5.43403
-5.39066
-5.32739
-5.31215
-5.28144
-5.26501
-5.25261
-5.24709
-6.04994
-6.08333
-5.71758
-5.83341
-5.82672
-5.88218
-5.89915
-5.71764
-5.70372
-5.66716
-5.76632
-5.69067
-5.62277
-5.60051
-5.54854
-5.45853
-5.44622
-5.43091
-5.44704
-5.41766
-5.40808
-5.39748
-5.39892
-8.98524
-6.40143
-5.90512
-6.04266
-6.01658
-6.02027
-5.97044
-6.02649
-5.98956
-5.80384
-5.81434
-5.84142
-5.77129
-5.82794
-5.58298
-5.59817
-5.64613
-5.57214
-5.55451
-5.553
-5.54487
-5.52113
-5.53884
-13.887
-8.28943
-6.10908
-6.11506
-6.08426
-6.00894
-5.93876
-5.9104
-5.86824
-6.01461
-5.82226
-5.77215
-5.73434
-5.74439
-5.78785
-5.77581
-5.70792
-5.74522
-5.7252
-5.69979
-5.68633
-5.701
-5.6797
302.147
320.254
319.316
321.053
238.372
254.56
250.148
243.151
131.332
205.215
178.249
158.857
103.647
106.375
96.0896
125.513
12.7842
17.0697
31.1824
40.0982
21.9415
19.5364
32.9341
22.0316
20.3635
18.6106
17.2298
16.9257
10.821
10.7084
9.51501
9.56001
4.15368
3.96186
4.17325
4.34867
3.15453
3.02644
2.76641
2.57409
1.63164
1.46038
1.30935
1.21147
0.950345
0.841946
0.746178
0.673223
0.495787
0.359603
0.315647
0.20963
-0.117917
-0.0477189
-0.115228
-0.183371
-0.242029
-0.1714
-0.332139
-0.546454
-0.712799
-0.650379
-0.704957
-0.854105
-1.14175
-1.13297
-1.22828
-1.29988
-1.77207
-1.67243
-1.55005
-1.45598
-1.85371
-1.74983
-1.67243
-1.63924
-2.19501
-2.15928
-2.10894
-1.99778
-2.40329
-2.41282
-2.22465
-2.24593
-2.72053
-2.64763
-2.60946
-2.55017
-2.75471
-2.73416
-2.71559
-2.6401
-3.05086
-2.97384
-2.90681
-2.88117
-3.16301
-3.07914
-3.0292
-2.99426
-3.34717
-3.28175
-3.23169
-3.19279
-3.42507
-3.40913
-3.39922
-3.37439
-3.55136
-3.50416
-3.47551
-3.44473
-3.77239
-3.75995
-3.74879
-3.72772
-3.86904
-3.8459
-3.81084
-3.7933
-4.0337
-3.98278
-3.97107
-3.96426
-4.15372
-4.15692
-4.13088
-4.13003
-4.31052
-4.30346
-4.29003
-4.28668
-4.48446
-4.4733
-4.46644
-4.46912
-4.63717
-4.63324
-4.62587
-4.63935
-4.77899
-4.76344
-4.76543
-4.75009
-4.94529
-4.94417
-4.92893
-4.92849
-5.08673
-5.08443
-5.08174
-5.07632
-5.24271
-5.24078
-5.24008
-5.2308
-5.39106
-5.39176
-5.39165
-5.39201
-5.52427
-5.52741
-5.53667
-5.53589
-5.69129
-5.69228
-5.68781
-5.6893
299.622
182.105
119.529
113.671
150.728
151.7
141
142.997
150.158
138.422
137.067
163.867
170.612
179.049
182.101
184.615
212.982
219.524
252.635
224.628
151.16
133.782
171.258
132.443
126.344
101.661
94.7632
104.414
110.554
124.417
137.345
143.616
155.147
142.724
162.438
174.753
169.63
187.039
155.377
166.432
79.8579
89.3735
94.9587
83.5417
81.6022
74.9943
82.0224
86.4718
91.0611
92.8397
99.0726
97.4761
102.819
124.426
113.294
109.575
123.469
71.3442
62.8676
72.4309
89.3358
75.1463
60.3139
57.7718
46.1123
56.8607
54.2172
58.1173
59.6567
65.625
61.3209
65.361
68.7096
71.8934
60.4968
76.0481
38.4112
53.4408
52.2203
46.079
36.7025
32.6741
27.7231
28.3668
29.3774
27.0128
28.3605
26.7307
30.2688
34.9397
32.9781
34.882
38.7169
41.7365
49.4231
35.9552
29.1274
27.9216
25.0356
21.0934
19.4073
15.9468
14.8391
13.7857
12.1239
12.4142
11.8653
12.5649
13.0246
11.771
21.0245
22.7569
27.1549
32.9762
14.1955
15.0417
13.4051
13.903
12.3045
11.6753
10.2558
8.81082
8.17319
7.02959
6.29235
5.93098
6.34997
5.61889
6.86514
8.47411
10.4195
13.4495
18.9804
8.32878
7.70528
7.40284
7.36456
7.32226
7.67042
6.42958
5.38451
4.5789
4.12926
3.97594
3.90151
3.21179
3.33306
3.16725
3.42806
4.9662
3.77284
9.66029
4.2619
3.94135
4.11587
4.16615
4.16592
4.63165
3.959
3.56376
3.14178
2.77147
2.60345
2.32202
2.37147
2.05687
1.72412
1.41607
1.58056
1.14105
4.44962
2.4471
2.18282
2.29522
2.18153
2.02677
1.83115
1.96601
1.60879
1.92237
1.70831
1.62121
1.36263
1.10385
1.00401
0.822617
0.681488
0.487986
0.55519
1.07309
1.08914
1.07749
0.955284
0.989539
0.948191
0.686639
0.62415
0.805719
1.23711
0.902966
1.09006
1.10046
0.923569
0.628664
0.325952
0.228507
-0.00849561
-0.0713129
-0.144795
0.469162
0.283602
0.199106
0.0296783
0.0204789
-0.0251299
-0.0351979
-0.0118714
0.165967
0.173699
0.408225
0.225193
0.283731
0.179254
0.0908145
-0.176903
-0.21138
-0.324657
-0.389249
0.0624493
-0.0704876
-0.164588
-0.272872
-0.330454
-0.376462
-0.437538
-0.467531
-0.391288
-0.391296
-0.289549
-0.208549
-0.38261
-0.375993
-0.41068
-0.412639
-0.548649
-0.570882
-0.429433
-0.264653
-0.373932
-0.410821
-0.492971
-0.670993
-0.691563
-0.708219
-0.768082
-0.783935
-0.817305
-0.774147
-0.82707
-0.888266
-0.78749
-0.705397
-0.882299
-0.8699
-0.957101
-0.86121
-0.453917
-0.583727
-0.72523
-0.716606
-0.855977
-0.890987
-0.95135
-0.996231
-1.05652
-1.10943
-1.11628
-1.16227
-1.20309
-1.07343
-1.19641
-1.19929
-1.15887
-1.20893
-1.12101
-0.690179
-0.751501
-0.9674
-0.977405
-1.06034
-1.12203
-1.15091
-1.16805
-1.2754
-1.35741
-1.38159
-1.39613
-1.42779
-1.4558
-1.33549
-1.43989
-1.4708
-1.48215
-1.39439
-0.958413
-1.03272
-1.15237
-1.3183
-1.25312
-1.30467
-1.37266
-1.36089
-1.49735
-1.4897
-1.5242
-1.6106
-1.6043
-1.63461
-1.65254
-1.60883
-1.65692
-1.64226
-1.59491
-1.33225
-1.40654
-1.36343
-1.48826
-1.48008
-1.47297
-1.62818
-1.57977
-1.63968
-1.71282
-1.65428
-1.7311
-1.80363
-1.84441
-1.80519
-1.87763
-1.82432
-1.82272
-1.78563
-1.68103
-1.66966
-1.62919
-1.66957
-1.64668
-1.73905
-1.76291
-1.77732
-1.79563
-1.89224
-1.87915
-1.91799
-2.01125
-1.94854
-1.98838
-1.97457
-1.98292
-1.96421
-1.94759
-1.98234
-1.88932
-1.98129
-1.79757
-1.92619
-1.87031
-1.95537
-1.98076
-2.00781
-1.9972
-2.02614
-2.06017
-2.07428
-2.14722
-2.0964
-2.12675
-2.08919
-2.11375
-2.09416
-2.19247
-2.25551
-2.09476
-2.13326
-2.13962
-2.16502
-2.1391
-2.18958
-2.11137
-2.17744
-2.21671
-2.16975
-2.28705
-2.23686
-2.29807
-2.24609
-2.29142
-2.24359
-2.25135
-2.38606
-2.31576
-2.26794
-2.34782
-2.24386
-2.40512
-2.36912
-2.32768
-2.36683
-2.29605
-2.34958
-2.4029
-2.40781
-2.44737
-2.37711
-2.40172
-2.40059
-2.39876
-2.40172
-2.49628
-2.50658
-2.49432
-2.48702
-2.51087
-2.50158
-2.47212
-2.51628
-2.47971
-2.50631
-2.62431
-2.49346
-2.59368
-2.54462
-2.56146
-2.5361
-2.5077
-2.53271
-2.52857
-2.87094
-2.64013
-2.68274
-2.59937
-2.62852
-2.68558
-2.70231
-2.61766
-2.68691
-2.62432
-2.72804
-2.70957
-2.65116
-2.64143
-2.67056
-2.70527
-2.73449
-2.67242
-2.67299
-2.87615
-2.98709
-2.88184
-2.90913
-2.91901
-2.79869
-2.84618
-2.84336
-2.80776
-2.84689
-2.82919
-2.81765
-2.81021
-2.83104
-2.88626
-2.8048
-2.83303
-2.82763
-2.81959
-3.15463
-3.05936
-3.01188
-3.1134
-3.00874
-3.06534
-3.0851
-2.93991
-3.04263
-2.99913
-2.96496
-3.03648
-2.97362
-3.07831
-2.97869
-3.03166
-2.97985
-2.93886
-2.97782
-3.398
-3.18375
-3.27019
-3.21461
-3.19762
-3.27321
-3.17793
-3.19924
-3.1352
-3.18034
-3.18193
-3.13832
-3.24176
-3.14415
-3.19318
-3.0974
-3.13518
-3.13303
-3.12886
-3.45676
-3.45332
-3.34213
-3.33266
-3.30388
-3.38402
-3.30082
-3.35667
-3.36512
-3.36354
-3.38883
-3.41414
-3.34211
-3.29693
-3.35419
-3.27256
-3.31025
-3.34173
-3.27309
-3.61479
-3.54657
-3.59683
-3.53578
-3.54221
-3.57491
-3.46006
-3.61636
-3.54199
-3.47629
-3.42885
-3.49627
-3.49021
-3.3973
-3.46881
-3.43908
-3.44286
-3.40803
-3.44224
-3.77249
-3.77211
-3.73698
-3.72242
-3.74399
-3.66751
-3.69675
-3.74934
-3.69053
-3.70111
-3.66201
-3.72953
-3.62356
-3.70939
-3.56548
-3.59108
-3.66395
-3.57484
-3.58698
-3.93653
-3.93343
-3.87027
-3.89216
-3.8659
-3.8786
-3.86099
-3.92676
-3.82975
-3.78091
-3.77966
-3.86265
-3.88905
-3.74348
-3.80379
-3.92439
-3.77225
-3.75973
-3.76074
-4.12062
-4.09957
-4.08876
-4.07606
-4.04708
-4.04379
-4.09205
-4.04678
-4.05881
-4.094
-4.01137
-4.01634
-3.96666
-3.95205
-4.06451
-4.04254
-3.86266
-3.84029
-3.92358
-4.25867
-4.26298
-4.22852
-4.22619
-4.22798
-4.26196
-4.29628
-4.18827
-4.2516
-4.27957
-4.18902
-4.1718
-4.15231
-4.35976
-4.22555
-4.13258
-4.16805
-4.25443
-4.13448
-4.44662
-4.41845
-4.41157
-4.39296
-4.47232
-4.45424
-4.5062
-4.34554
-4.48113
-4.42836
-4.3488
-4.34834
-4.38264
-4.6333
-4.36051
-4.37237
-4.28273
-4.34379
-4.29156
-4.59829
-4.56154
-4.50532
-4.62311
-4.53405
-4.6449
-4.69852
-4.57332
-4.61157
-4.61528
-4.55254
-4.62618
-4.78849
-4.54991
-4.53646
-4.50531
-4.51885
-4.69226
-4.52449
-4.75796
-4.72647
-4.72885
-4.71238
-4.80614
-4.78311
-4.86647
-4.75679
-4.80014
-4.83447
-4.89098
-5.01218
-4.78871
-4.69787
-4.79143
-4.67815
-4.63813
-4.66817
-4.73883
-4.91439
-4.91224
-4.91425
-4.9171
-4.93466
-4.96112
-4.99413
-4.98689
-5.04667
-5.08946
-5.06597
-5.0261
-4.94132
-5.04373
-4.93161
-4.89823
-4.87449
-4.9823
-4.94489
-5.08601
-5.05327
-5.12171
-5.07859
-5.11237
-5.13764
-5.12484
-5.18701
-5.18949
-5.20721
-5.23754
-5.24974
-5.16983
-5.13303
-4.95957
-5.10364
-5.07046
-4.99001
-4.95564
-5.22952
-5.21605
-5.25914
-5.25255
-5.25192
-5.37156
-5.32884
-5.31788
-5.33442
-5.41038
-5.44813
-5.41319
-5.58143
-5.41081
-5.46224
-5.3022
-5.21103
-5.20874
-5.20193
-5.39361
-5.39909
-5.4212
-5.42382
-5.46342
-5.48975
-5.47151
-5.51251
-5.5769
-5.53632
-5.59636
-5.61675
-5.76327
-5.46757
-5.70503
-5.3884
-5.38635
-5.34362
-5.39173
-5.53997
-5.54091
-5.57602
-5.58888
-5.59232
-5.6297
-5.68032
-5.67332
-5.69706
-5.70953
-5.78447
-5.68919
-5.58589
-5.57777
-5.43969
-5.52076
-5.55383
-5.53803
-5.54858
-5.69968
-5.73625
-5.75196
-5.78715
-5.81254
-5.85658
-5.87847
-5.8477
-5.94132
-5.86109
-5.88444
-5.97966
-5.80796
-5.68365
-5.5617
-5.54549
-5.56346
-5.79776
-6.17686
)
;

boundaryField
{
    leftWall
    {
        type            calculated;
        value           nonuniform List<scalar> 
50
(
1022.35
964.306
907.098
849.275
792.965
736.692
682.596
628.781
547.888
437.998
344.62
265.189
231.001
195.393
140.91
125.028
126.563
98.2901
104.101
101.258
103.472
82.8764
67.4447
52.7154
40.679
32.8315
25.4474
19.24
13.4788
7.97569
4.94303
1.92452
1.69553
4.40036
2.98729
1.95771
2.99992
-0.50972
-8.87048
-6.05163
-5.93871
-5.23269
-5.27326
-5.30878
-5.27008
-5.35609
-5.81134
-6.04994
-8.98524
-13.887
)
;
    }
    rightWall
    {
        type            calculated;
        value           nonuniform List<scalar> 
50
(
476.881
446.41
416.509
390.569
365.245
339.45
315.768
292.455
252.635
187.039
123.469
76.0481
49.4231
32.9762
18.9804
9.66029
4.44962
1.07309
-0.144795
-0.389249
-0.429433
-0.86121
-1.12101
-1.39439
-1.59491
-1.78563
-1.94759
-2.09416
-2.25135
-2.40172
-2.52857
-2.67299
-2.81959
-2.97782
-3.12886
-3.27309
-3.44224
-3.58698
-3.76074
-3.92358
-4.13448
-4.29156
-4.52449
-4.73883
-4.94489
-4.95564
-5.20193
-5.39173
-5.54858
-6.17686
)
;
    }
    lowerWall
    {
        type            calculated;
        value           nonuniform List<scalar> 
62
(
1051.59
1049.83
1043.6
1037.03
1034.87
1008.43
1000.88
981.614
961.606
945.821
926.884
887.113
910.328
887.271
875.217
871.449
870.083
868.761
883.767
869.79
893.793
902.423
902.453
873.023
811.216
756.479
685.843
644.291
542.466
485.531
382.472
361.711
380.489
379.207
376.269
476.425
455.15
412.137
381.983
350.529
328.934
316.7
310.921
488.471
425.372
377.385
364.566
422.91
420.152
395.246
383.467
370.738
356.063
360.144
374.11
380.739
404.883
414.228
429.209
468.787
473.219
491.828
)
;
    }
    atmosphere
    {
        type            calculated;
        value           nonuniform List<scalar> 
46
(
-32.8208
-6.23522
-5.90833
-6.13527
-6.1931
-6.09765
-6.02748
-6.04124
-5.98329
-5.99343
-5.90264
-5.88354
-5.85093
-5.88022
-5.80612
-5.79814
-5.79627
-5.77501
-5.76131
-5.75546
-5.74895
-5.75002
-5.74658
-5.74872
-5.75338
-5.75551
-5.75703
-5.76495
-5.79534
-5.81325
-5.84313
-5.88666
-5.98007
-6.06757
-6.0258
-5.97393
-5.95625
-5.96558
-5.98348
-5.97976
-5.91286
-5.85242
-5.81482
-5.87297
-6.09762
-6.42008
)
;
    }
    defaultFaces
    {
        type            empty;
    }
}


// ************************************************************************* //
