/*--------------------------------*- C++ -*----------------------------------*\
| =========                 |                                                 |
| \\      /  F ield         | foam-extend: Open Source CFD                    |
|  \\    /   O peration     | Version:     4.1                                |
|   \\  /    A nd           | Web:         http://www.foam-extend.org         |
|    \\/     M anipulation  |                                                 |
\*---------------------------------------------------------------------------*/
FoamFile
{
    version     2.0;
    format      ascii;
    class       volScalarField;
    location    "1";
    object      pd;
}
// * * * * * * * * * * * * * * * * * * * * * * * * * * * * * * * * * * * * * //

dimensions      [1 -1 -2 0 0 0 0];

internalField   nonuniform List<scalar> 
2268
(
1051.59
1049.83
1043.6
1037.03
1034.87
1008.43
1000.88
981.614
961.606
945.821
926.884
887.113
910.328
887.271
875.217
871.449
870.083
868.761
883.767
869.79
893.793
902.423
902.453
1051.86
1049.07
1044.66
1038.41
1033.48
1009.71
1000.72
980.463
955.02
946.486
923.568
893.521
901.768
887.156
873.869
866.997
866.338
871.025
881.464
882.267
882.002
905.164
899.504
1052.4
1049.26
1044.67
1036.05
1033.47
1008.17
1000.42
982.13
968.685
944.521
923.068
891.436
896.985
883.808
862.184
870.737
861.405
856.724
862.044
888.358
888.216
898.39
903.626
1051.41
1048.23
1045.01
1035.85
1036.32
1010.27
996.893
978.687
962.596
949.022
911.86
907.138
871.908
874.858
862.606
845.851
857.395
869.2
857.552
890.092
872.99
904.588
891.848
1050.68
1051.12
1042.1
1037.08
1024.26
1020.19
993.269
985.415
956.3
940.008
922.723
893.743
867.249
871.154
818.948
846.823
850.794
855.535
854.213
888.787
873.249
886.425
909.155
1048.45
1042.36
1045.21
1036.94
1030.48
1016.13
995.428
978.416
963.997
928.369
920.565
868.739
846.309
808.548
814.254
812.835
830.219
836.972
848.519
879.04
876.634
899.023
866.189
1046.66
1049.56
1033.73
1024.45
1020.84
1018.75
993.983
976.401
948.684
924.502
908.058
852.204
802.748
778.463
735.709
763.499
795.714
814.793
822.602
870.408
856.252
885.744
868.113
1043.17
1041.93
1044.6
1041.76
1017.21
1011.39
985.07
964.037
931.55
888.699
877.934
799.688
759.993
721.392
693.426
704.63
737.051
781.011
789.326
823.703
856.9
877.147
820.744
488.471
425.372
377.385
364.566
422.91
420.152
395.246
383.467
370.738
356.063
360.144
374.11
380.739
404.883
414.228
429.209
468.787
473.219
491.828
491.212
395.12
343.945
362.22
409.418
415.062
393.799
382.344
367.722
352.577
358.422
374.783
378.02
400.63
411.694
430.989
464.641
468.315
489.488
472.01
370.342
326.393
356.847
375.312
400.447
385.204
373.561
356.824
344.403
347.439
362.543
374.002
389.698
420.503
431.407
464.878
471.766
484.857
465.471
344.266
301.733
300.111
348.892
378.301
371.678
363.439
346.921
327.805
334.865
346.874
363.236
384.075
404.078
437.694
470.943
470.955
483.882
457.351
332.548
280.373
283.816
371.647
356.544
353.398
350.224
337.698
315.341
319.52
335.948
343.88
367.818
395.367
430.609
475.517
479.156
485.635
457.658
331.001
259.424
271.416
334.998
341.436
333.625
327.232
330.55
304.214
308.818
321.633
332.265
349.502
373.589
422.12
477.833
487.745
490.596
463.875
343.215
257.101
257.723
327.124
322.829
311.368
303.457
312.438
299.051
289.182
303.246
322.298
328.541
350.702
402.978
475.296
500.445
501.381
481.914
348.834
283.534
298.63
331.605
307.558
305.394
288.559
294.143
288.183
277.277
302.391
312.01
315.955
332.071
384.338
465.537
507.494
514.032
1036.68
1033.84
1024.77
1026.79
1019.94
1009.26
974.743
925.268
866.609
824.512
785.76
718.536
674.742
661.859
649.082
647.208
648.664
691.526
728.364
774.274
826.497
828.45
845.895
1014.82
1016.61
1015.74
991.305
993.666
967.488
917.172
821.11
715.888
658.221
630.93
619.922
645.307
670.048
661.99
657.377
626.706
624.015
621.462
665.33
631.773
718.084
741.341
939.928
951.32
956.309
952.628
947.203
892.775
797.587
676.38
617.535
605.306
569.326
626.287
617.292
657.454
669.001
674.274
645.919
649.676
646.394
647.288
668.274
682.765
651.63
646.872
682.806
756.367
806.922
824.61
766.665
648.881
588.141
558.917
558.392
537.961
508.831
496.728
528.422
556.686
531.397
558.925
618.774
645.58
683.399
647.817
657.688
645.517
471.437
464.95
487.977
547.054
640.015
677.28
590.896
542.126
506.694
484.43
459.284
430.137
415.376
440.62
395.925
400.548
443.197
476.243
511.056
531.006
590.86
689.826
716.892
440.661
425.69
413.157
424.859
507.565
598.929
540.218
490.226
449.758
418.986
406.373
393.131
372.095
359.133
316.465
297.123
308.757
281.762
265.568
351.433
399.246
427.661
460.548
411.41
369.031
380.03
386.235
452.317
527.087
486.587
449.132
423.851
396.388
370.788
339.354
304.404
257.966
217.77
199.924
182.447
167.236
163.116
189.55
203.238
200.991
208.955
417.337
400.962
350.688
373.061
420.246
474.355
444.515
424.614
398.964
372.998
308.739
265.023
207.477
169.528
135.481
115.257
104.12
104.846
89.6211
96.3585
91.3018
87.7364
92.2306
441.488
400.173
382.623
383.414
419.092
435.378
426.115
416.787
385.081
338.794
279.748
212.63
153.552
117.485
92.4301
76.7119
62.24
63.8003
58.2269
49.1334
47.8041
45.0487
46.2216
437.918
431.653
413.479
395.909
426.705
425.467
423.838
408.687
364.555
320.93
252.53
185.348
130.067
93.5263
68.2837
55.8705
47.0411
43.9292
38.8682
29.7363
24.686
24.162
24.7607
473.442
452.204
432.377
420.069
418.022
432.764
427.003
416.969
364.558
273.667
210.827
144.502
94.1948
70.3679
54.9582
44.2302
35.915
30.7484
24.6378
20.2851
15.2141
14.1055
12.2522
488.338
471.059
457.981
455.311
436.259
444.597
440.717
386.4
344.444
249.279
154.515
100.768
76.4311
64.545
53.8606
40.4452
32.1011
26.9252
21.5821
16.6487
12.2439
8.95556
6.8427
505.029
467.504
473.032
467.842
441.508
453.44
416.304
375.671
320.609
223.713
132.752
97.7724
83.1663
70.0792
56.002
41.9742
30.0491
23.7282
16.883
12.4814
8.44504
5.88002
4.70583
499.733
466.261
451.507
443.588
438.091
421.459
371.461
306.822
287.983
216.399
148.502
119.319
95.6083
75.193
56.3612
42.839
29.6962
26.4792
17.199
12.0925
8.25961
4.89969
3.53842
502.881
449.795
424.443
400.226
378.435
333.478
273.838
223.826
216.913
185.193
119.171
103.224
91.7965
72.304
53.4843
37.9905
25.4718
19.3141
16.2185
12.875
10.7304
5.71294
3.35871
512.282
436.754
374.655
334.635
309.793
269.451
196.362
161.074
147.524
132.201
103.519
72.5325
63.223
57.3129
45.2111
34.3373
21.5486
13.7691
12.6901
10.5154
8.90258
6.1493
3.58019
526.715
437.115
345.535
290.536
262.896
224.787
178.462
141.608
123.802
96.6687
85.6776
54.981
46.9449
39.1385
33.8695
31.2157
22.1989
14.3287
9.59318
6.89384
5.76745
4.52232
2.60124
545.302
447.909
344.175
276.194
237.88
198.542
165.391
133.068
103.389
71.8386
53.5478
32.3652
25.0123
22.4686
23.3908
22.9712
19.236
12.7626
6.77803
3.50994
3.62692
2.81174
1.70793
562.035
460.478
350.938
270.914
221.803
186.113
158.48
127.829
93.4995
57.8154
35.8456
21.9385
15.5333
14.8713
17.3244
18.91
16.6368
11.3449
6.11473
3.21426
2.21734
1.43567
1.1846
577.058
471.712
350.468
260.829
204.694
179.921
187.426
143.756
103.699
46.5316
20.7178
12.0646
10.1307
10.7748
14.5223
16.8711
16.6286
13.7907
8.60537
3.91742
1.93486
1.14229
0.896426
585.263
474.864
360.295
267.089
207.027
197.02
220.115
197.464
135.937
48.7936
19.1762
9.77636
8.52602
9.26989
12.0469
15.5509
16.2093
14.7302
10.5513
4.91801
2.21601
0.9897
0.782355
596.643
497.251
390.049
287.356
226.842
231.682
279.194
268.555
184.195
70.7341
21.8461
7.35983
7.14878
8.74951
11.9513
14.6897
14.6683
13.659
11.2307
6.75262
3.0201
1.38198
0.671667
615.653
533.825
450.414
336.95
273.544
288.809
318.904
317.316
222.917
78.8865
17.9211
4.75817
5.42543
7.82189
10.2485
11.2068
10.0794
8.82061
7.31705
4.58853
1.9552
0.806791
0.356566
635.642
578.689
520.37
424.271
366.092
383.282
392.577
344.567
238.977
85.1242
17.357
3.86587
3.75338
4.61793
6.14996
5.90727
4.42374
4.3406
4.09276
2.90969
1.30588
0.528176
0.483289
654.33
605.227
555.964
503.412
465.034
448.087
434.342
377.188
251.442
88.5698
16.0873
3.41706
3.09489
2.70115
2.74193
1.97595
1.22511
1.30924
1.58868
1.12983
0.706929
0.440006
0.389206
664.772
602.202
526.959
494.038
483.597
458.821
410.668
337.474
172.731
47.0966
7.86816
3.0654
3.17118
2.69132
1.47663
0.683004
0.342967
0.307816
0.342456
0.468066
0.338471
0.319486
0.336471
646.497
572.796
481.026
440.222
417.465
374.225
294.781
201.54
105.203
32.3569
7.30015
4.28743
3.70065
2.76291
1.05953
0.448123
0.0647116
0.0658683
0.139531
0.219055
0.178186
0.203429
0.268831
580.632
517.361
434.204
359.711
308.362
239.138
151.764
98.5539
48.3634
16.205
5.2581
4.6689
3.94037
3.55841
1.91949
0.781327
0.469074
0.285576
0.204658
0.197242
0.231692
0.265068
0.298297
479.117
442.144
377.212
301.778
200.609
139.952
70.4898
36.0874
12.5942
5.29208
4.4679
4.88618
4.60539
4.20596
3.53183
1.58025
0.982305
0.520422
0.290026
0.201545
0.224322
0.240843
0.267683
412.958
398.206
341.645
250.105
155.928
92.5101
40.1462
12.9215
4.94103
4.1686
4.69611
4.80836
4.63059
4.44849
4.07111
2.36748
1.46754
0.768905
0.381299
0.25235
0.226701
0.251278
0.290207
377.342
368.606
305.716
211.437
118.374
63.7351
28.7674
8.62228
3.72803
4.27312
4.70893
3.84477
4.27434
4.55283
4.34448
3.05115
1.89807
0.938526
0.419422
0.260094
0.215017
0.220664
0.2051
365.325
344.758
269.781
161.159
83.8783
47.8758
25.2869
9.59011
3.96181
3.97789
3.84055
3.75475
3.67648
4.27041
4.45023
3.80898
2.16642
1.01293
0.421176
0.23176
0.198218
0.19558
0.241465
348.165
312.859
225.261
126.135
55.9803
26.8477
13.2468
6.16031
3.41692
3.32674
3.41968
3.33341
4.04461
4.52819
4.3316
3.43525
1.75536
0.781261
0.317029
0.184406
0.15873
0.180833
0.210247
325.551
267.47
172.158
84.9079
36.3782
16.4029
8.26728
4.40418
2.62497
2.58317
2.75476
3.30376
4.16025
4.34875
4.04034
2.78376
1.72402
0.826402
0.315116
0.157853
0.140101
0.147143
0.158156
297.653
215.479
122.182
52.8228
20.1845
8.48072
4.49659
2.69439
1.95758
2.13587
2.75082
3.67271
4.28633
3.69476
3.25621
1.78381
0.838963
0.384205
0.0957298
0.0882558
0.0871822
0.115808
0.136098
272.086
170.703
84.3764
32.7706
12.1022
5.36967
3.14421
2.41048
2.81695
3.23154
3.64047
4.39769
4.08685
3.01946
1.74929
0.823887
0.372256
0.107122
0.0623565
0.0311552
0.0869146
0.103446
0.122706
244.812
128.076
51.4192
18.544
8.06264
4.94066
4.14826
3.76943
4.41912
4.78161
4.20828
3.46929
2.29858
1.22392
0.765741
0.193811
0.0502349
-0.00767241
-0.0213534
0.0420987
0.0462936
0.074336
0.07982
214.171
88.065
27.1411
10.0784
6.46923
5.53195
4.95776
4.67882
4.46277
3.48639
2.39132
1.21907
0.700795
0.0923749
0.0911124
0.0344734
-0.0782854
-0.0438832
-0.0346868
0.019951
0.0427737
0.0617549
0.0653158
172.788
54.4096
14.1487
6.53518
5.24067
4.44607
3.15213
2.23213
1.57425
1.01561
0.449976
-0.0300491
-0.168195
-0.149261
-0.137707
-0.143174
-0.0997994
-0.0365348
-0.0212889
0.00941654
0.025845
0.0382467
0.0437738
134.384
28.0505
5.51255
3.1072
2.51064
1.51194
0.683319
0.357663
0.098967
-0.112088
-0.310608
-0.274612
-0.20672
-0.184457
-0.132486
-0.0424775
-0.0301659
-0.0148537
-0.0309838
-0.00160646
0.00797432
0.0185692
0.0171319
78.6142
7.90154
0.369145
0.541993
0.446426
0.0561004
-0.134543
-0.334539
-0.381355
-0.262591
-0.273093
-0.300176
-0.230042
-0.286691
-0.0417309
-0.0569211
-0.104878
-0.0308911
-0.0128257
-0.0115912
-0.00362175
0.0201198
0.00241314
18.5752
-2.22386
-0.442641
-0.106669
-0.00476017
-0.0996152
-0.122747
-0.148488
-0.149631
-0.34817
-0.155813
-0.105705
-0.0679015
-0.0779456
-0.121405
-0.109365
-0.0414728
-0.0787804
-0.0582007
-0.033198
-0.0198863
-0.0345591
-0.0132551
809.766
833.59
829.715
791.617
775.282
821.587
837.272
813.194
673.45
784.14
796.106
792.203
717.68
757.608
788.695
832.45
724.66
746.391
763.178
737.534
514.303
526.522
524.738
458.981
217.813
216.079
205.991
192.093
96.0087
94.496
90.6405
86.7869
45.8003
44.4745
43.4088
41.791
23.8269
23.5366
23.349
23.0722
11.5356
11.4886
11.8581
12.2238
6.33319
6.19917
6.29168
6.44219
4.20312
3.91159
3.85013
3.76224
3.01977
2.91396
2.77334
2.66847
3.07998
2.7808
2.42211
2.12718
2.96632
2.53395
2.16072
1.84213
2.14527
1.82725
1.52321
1.33896
1.35442
1.24021
1.22206
1.23895
1.1408
1.13974
1.15223
1.15175
0.852815
0.82243
0.830804
0.918834
0.729069
0.670404
0.830871
0.795319
0.596051
0.592885
0.588447
0.624806
0.645747
0.612946
0.600408
0.659335
0.419633
0.469806
0.521414
0.538675
0.398326
0.470325
0.514159
0.545972
0.322421
0.383949
0.432384
0.470615
0.36378
0.379397
0.389302
0.414136
0.362357
0.409557
0.438211
0.468986
0.266528
0.278969
0.290121
0.311192
0.295737
0.318457
0.353299
0.370808
0.256842
0.30702
0.318335
0.325039
0.26229
0.25823
0.283733
0.284467
0.229888
0.236232
0.249658
0.253015
0.180422
0.191591
0.198446
0.195768
0.152909
0.156845
0.16421
0.15073
0.136287
0.151838
0.149841
0.165182
0.0951763
0.0962965
0.111543
0.111978
0.0789379
0.0812332
0.083926
0.0893491
0.0481477
0.0500787
0.0507763
0.0600631
0.0249969
0.0242954
0.024406
0.0240453
0.0169781
0.0138355
0.00458201
0.00536036
-0.0248466
-0.0258419
-0.0213681
-0.0228584
566.852
390.495
327.432
317.705
325.032
288.012
267.688
261.315
268.878
259.715
260.204
285.601
290.45
298.591
313.022
368.969
474.352
514.023
529.749
671.214
456.576
407.839
415.83
307.704
269.564
244.068
231.781
235.144
238.98
257.77
276.159
284.03
307.102
323.774
403.993
509.339
539.448
530.455
748.019
610.653
422.616
331.495
267.601
239.398
243.06
235.859
244.169
254.833
278.788
286.845
287.397
323.873
390.061
442.008
480.58
530.627
523.192
731.298
566.432
427.359
294.743
226.346
204.706
216.748
219.215
270.949
285.624
307.112
318.507
332.239
353.257
351.358
341.665
374.611
474.613
516.666
607.654
499.212
323.278
206.407
156.164
130.114
130.491
136.726
182.544
189.831
190.607
195.743
239.101
248.299
208.339
206.178
228.833
369.977
502.068
360.927
297.27
200.47
136.596
99.2601
74.9152
69.5731
66.937
80.8699
78.8145
79.3245
80.0089
92.2957
96.0456
86.0681
111.513
138.526
271.822
455.107
170.928
156.794
110.988
79.6989
58.6068
44.5473
40.9563
38.6958
38.7763
34.0438
32.6884
32.5706
34.2775
37.8262
45.9224
65.0332
102.269
205.808
364.659
80.6913
73.8987
56.2826
42.9547
35.0669
30.4045
28.3719
26.3148
22.5371
19.1609
17.7348
17.1215
16.7449
18.9268
22.4422
30.8727
54.4817
112.413
233.48
39.7119
36.4776
31.229
26.777
24.0731
22.3337
21.4426
20.4183
17.5957
14.5025
12.1216
10.8082
10.6721
9.95312
9.51602
10.1181
18.4541
42.8012
106.461
22.8835
21.3589
19.6131
17.5224
16.31
15.0775
15.4092
15.7868
16.0571
14.42
11.5335
9.22633
7.60182
6.29718
5.17812
4.51228
5.84166
12.0176
26.4047
12.5852
12.2816
11.7499
11.1899
10.5487
9.3252
9.5487
11.6958
14.0668
14.239
12.3976
10.466
8.76983
6.88401
4.90535
3.73216
3.04845
3.04227
3.98387
6.496
6.42506
6.46684
6.24975
5.83716
5.25272
5.58973
7.35386
10.2417
11.945
12.5988
11.6136
10.4981
8.53621
6.01173
4.18646
3.15818
2.53803
2.30273
3.60266
3.57612
3.63963
3.59996
3.39065
3.04491
3.15762
4.01052
6.01064
8.11662
9.77182
10.3846
10.1638
9.00783
6.44492
4.30523
2.99519
2.54827
2.57748
2.48248
2.3691
2.3616
2.27957
2.12915
2.00337
2.01984
2.21826
3.0761
4.39805
6.04333
7.17847
8.0046
8.47715
6.43808
4.16512
2.83362
2.25093
2.23302
2.12086
1.92768
1.76084
1.74545
1.63717
1.59662
1.54476
1.56083
1.77501
2.28723
3.30157
4.34495
5.58421
7.04868
5.64236
4.04052
2.72462
2.07155
2.06109
1.88695
1.7669
1.51361
1.48054
1.40005
1.3529
1.35227
1.34482
1.28634
1.3395
1.72847
2.32539
3.33264
4.81492
4.59301
3.71829
2.47487
1.82812
1.88915
1.62954
1.5418
1.40536
1.22554
1.28975
1.24268
1.19983
1.22089
1.0861
1.10504
1.17913
1.27797
1.77101
2.80504
2.94539
2.78907
2.00002
1.64697
1.79736
1.3319
1.25581
1.29834
1.17351
1.1817
1.1888
1.04371
1.09904
1.04012
0.963951
1.03669
0.991447
1.03796
1.43242
1.71582
1.64296
1.45752
1.45723
1.72162
1.10594
1.1173
1.15778
1.1174
1.14029
1.04792
1.02406
1.0137
0.997138
0.899754
0.911767
0.871709
0.803015
1.02654
1.05012
1.14358
1.13875
1.35356
1.68275
0.929819
1.02285
0.930873
1.11459
0.985969
1.04186
0.956793
0.931402
0.904681
0.915507
0.886068
0.851996
0.837881
0.81174
0.873068
0.899093
1.03672
1.29773
1.6604
0.844892
0.781845
0.942601
0.904094
0.897741
0.872341
0.898259
0.847781
0.925984
0.859917
0.820644
0.867605
0.750311
0.805015
0.747113
0.838073
0.920555
1.28575
1.62524
0.776524
0.846795
0.894615
0.814734
0.918697
0.75743
0.79343
0.83487
0.79572
0.866501
0.812976
0.759655
0.754745
0.715179
0.785443
0.786039
0.906334
1.2205
1.59092
0.793192
0.781165
0.793427
0.80073
0.776888
0.786165
0.815624
0.771463
0.808035
0.781432
0.663439
0.794288
0.694068
0.743122
0.726286
0.772657
0.915354
1.19606
1.58663
0.543039
0.772832
0.730205
0.813596
0.784459
0.727373
0.710632
0.795279
0.726035
0.788617
0.684901
0.703371
0.761785
0.771512
0.74238
0.724562
0.811811
1.20022
1.57107
0.662127
0.551042
0.656308
0.629029
0.619134
0.739446
0.69196
0.694777
0.730376
0.691244
0.708944
0.720485
0.727923
0.707097
0.651873
0.745651
0.818117
1.12973
1.53851
0.508705
0.603966
0.651453
0.549934
0.65459
0.59799
0.578227
0.723416
0.620697
0.664198
0.698367
0.626855
0.689713
0.585019
0.684645
0.641445
0.795244
1.14363
1.50314
0.390528
0.60477
0.518334
0.573914
0.590908
0.515311
0.610593
0.589286
0.653321
0.608181
0.606595
0.650208
0.546764
0.644373
0.595346
0.699779
0.759395
1.06464
1.47042
0.456958
0.460403
0.571593
0.581057
0.609841
0.529696
0.612901
0.557051
0.548595
0.550179
0.524889
0.499582
0.571604
0.616785
0.559534
0.647413
0.694433
0.946943
1.42698
0.424126
0.492345
0.442082
0.503131
0.496702
0.464002
0.578854
0.422558
0.496928
0.562624
0.61006
0.542646
0.548707
0.641618
0.570105
0.603241
0.670644
0.967425
1.35357
0.391619
0.391998
0.427125
0.441687
0.420121
0.496603
0.467362
0.414771
0.474813
0.466653
0.50667
0.437915
0.542846
0.45514
0.598629
0.573923
0.552959
0.875541
1.32798
0.352772
0.355874
0.419035
0.397144
0.423407
0.410705
0.428316
0.365326
0.468223
0.522268
0.525681
0.440547
0.411859
0.552008
0.485518
0.366202
0.57484
0.866814
1.34924
0.293878
0.314929
0.325739
0.338441
0.367418
0.370708
0.325663
0.379545
0.379895
0.354923
0.444051
0.433318
0.47678
0.481994
0.354825
0.37624
0.619057
0.936605
1.31944
0.281022
0.276709
0.311173
0.313505
0.311714
0.284888
0.26199
0.389953
0.352826
0.344235
0.436858
0.443107
0.445287
0.219236
0.327723
0.415491
0.44517
0.668686
1.2896
0.218268
0.246441
0.253317
0.271924
0.20258
0.240486
0.216525
0.405108
0.303066
0.394045
0.468055
0.44396
0.378405
0.0958918
0.329031
0.305978
0.466177
0.770606
1.36551
0.19179
0.228538
0.284762
0.170247
0.276666
0.200006
0.203085
0.374929
0.379256
0.409321
0.465577
0.362288
0.150621
0.332432
0.290331
0.304824
0.377043
0.666147
1.29671
0.157318
0.188803
0.186421
0.214517
0.147535
0.215433
0.209171
0.393035
0.402696
0.388278
0.326052
0.175529
0.332666
0.347948
0.178098
0.265935
0.385792
0.768952
1.11216
0.126082
0.12823
0.12971
0.144226
0.160023
0.183665
0.238181
0.341524
0.335324
0.297635
0.310503
0.319512
0.336799
0.14714
0.176455
0.179635
0.27766
0.50969
0.868247
0.0796511
0.112803
0.0600915
0.131658
0.151932
0.198642
0.303774
0.317809
0.330683
0.299603
0.258605
0.225416
0.24519
0.197628
0.285637
0.107649
0.206464
0.589164
1.02128
0.0613378
0.0801569
0.0623184
0.115187
0.198519
0.18351
0.29782
0.330256
0.292324
0.190047
0.149073
0.185769
-0.0340104
0.0501075
-0.0832673
0.0396601
0.199907
0.520661
0.953005
0.022441
0.0263487
0.0368504
0.0967106
0.161234
0.254867
0.3142
0.246483
0.131501
0.146531
0.0922126
0.0982029
-0.0831938
0.127901
-0.190104
0.0851562
0.160091
0.510029
0.890253
0.00128136
0.0141657
0.0151873
0.0533704
0.130538
0.212572
0.22277
0.182422
0.105259
0.0708931
0.00931322
0.131356
0.218655
0.149359
0.214504
0.089923
0.132283
0.437924
0.836327
-0.0332354
-0.0542351
-0.0286024
-0.0193233
0.00967117
0.0581479
0.122813
0.112267
-0.0326642
0.030087
0.0159592
-0.0615576
0.106465
0.164605
0.226774
0.205798
0.245332
0.233239
0.173073
)
;

boundaryField
{
    leftWall
    {
        type            zeroGradient;
    }
    rightWall
    {
        type            zeroGradient;
    }
    lowerWall
    {
        type            zeroGradient;
    }
    atmosphere
    {
        type            totalPressure;
        rho             rho;
        psi             none;
        gamma           1;
        p0              uniform 0;
        value           nonuniform List<scalar> 
46
(
0
-0.102646
-0.179294
-0.0605018
-0.0464397
-0.123045
-0.14722
-0.215679
-0.201504
-0.264389
-0.173597
-0.154498
-0.12189
-0.15118
-0.0770799
-0.0690973
-0.067231
-0.0459728
-0.0317131
-0.026269
-0.01991
-0.0209774
-0.0175376
-0.0196846
-0.0243415
-0.0264707
-0.0279875
-0.0359082
-0.0505559
-0.0266635
-0.0115908
-0.000131837
0
0
0
0
0
0
0
0
0
0
0
0
0
0
)
;
    }
    defaultFaces
    {
        type            empty;
    }
}


// ************************************************************************* //
