/*--------------------------------*- C++ -*----------------------------------*\
| =========                 |                                                 |
| \\      /  F ield         | foam-extend: Open Source CFD                    |
|  \\    /   O peration     | Version:     4.1                                |
|   \\  /    A nd           | Web:         http://www.foam-extend.org         |
|    \\/     M anipulation  |                                                 |
\*---------------------------------------------------------------------------*/
FoamFile
{
    version     2.0;
    format      ascii;
    class       surfaceScalarField;
    location    "1";
    object      phi;
}
// * * * * * * * * * * * * * * * * * * * * * * * * * * * * * * * * * * * * * //

dimensions      [0 3 -1 0 0 0 0];

internalField   nonuniform List<scalar> 
4432
(
2.37144e-06
-2.37144e-06
2.34856e-06
2.28884e-08
6.0172e-06
-3.66865e-06
8.13566e-06
-2.11845e-06
7.45359e-06
6.82068e-07
8.66392e-06
-1.21033e-06
9.56665e-06
-9.02735e-07
1.08946e-05
-1.32792e-06
1.14418e-05
-5.47225e-07
1.45529e-05
-3.11112e-06
1.71911e-05
-2.63816e-06
2.85398e-05
-1.13487e-05
2.94232e-05
-8.83328e-07
3.09069e-05
-1.48379e-06
3.06172e-05
2.89721e-07
2.98488e-05
7.68391e-07
2.80155e-05
1.83337e-06
2.59421e-05
2.07333e-06
1.30267e-05
1.29154e-05
1.82252e-05
-5.19851e-06
1.12803e-05
6.94486e-06
7.33366e-06
3.94668e-06
7.33366e-06
2.39635e-06
-4.76779e-06
5.54962e-06
-3.13038e-06
6.67197e-06
-4.79101e-06
4.73835e-06
-1.8483e-07
7.70367e-06
-2.28326e-06
8.91724e-06
-2.4239e-06
1.03819e-05
-2.3674e-06
1.16634e-05
-2.60944e-06
2.28134e-05
-1.16972e-05
2.69552e-05
-7.2529e-06
2.97855e-05
-5.46851e-06
2.75315e-05
-9.09472e-06
2.8201e-05
-1.55285e-06
2.96535e-05
-2.93629e-06
2.98562e-05
8.7074e-08
2.92569e-05
1.3676e-06
2.71992e-05
3.89109e-06
2.46482e-05
4.62432e-06
2.45937e-05
1.297e-05
1.11284e-05
8.26676e-06
1.09047e-05
7.16859e-06
6.63264e-06
8.21869e-06
1.39663e-05
1.92944e-06
-6.69723e-06
5.78069e-06
-6.98164e-06
3.87455e-06
-2.88487e-06
9.16018e-06
-5.47046e-06
7.66845e-06
-7.91525e-07
1.72869e-05
-1.20423e-05
1.79156e-05
-2.99612e-06
1.89828e-05
-3.67661e-06
1.16026e-05
-4.31707e-06
1.48596e-05
-1.05099e-05
1.60614e-05
-6.67035e-06
2.57114e-05
-1.87446e-05
2.51978e-05
-1.03928e-06
2.68134e-05
-4.55185e-06
2.53922e-05
1.50819e-06
1.41478e-05
1.26121e-05
1.47096e-05
3.32932e-06
2.44831e-05
-5.14926e-06
1.96407e-05
1.78124e-05
1.75563e-05
1.03512e-05
1.24557e-05
1.22692e-05
7.42999e-06
1.32444e-05
2.13963e-05
2.4168e-06
-9.11403e-06
2.78196e-06
-7.3468e-06
4.15964e-06
-4.26255e-06
9.68811e-06
-1.09989e-05
7.80955e-06
1.08703e-06
9.26862e-06
-1.35014e-05
9.83986e-06
-3.56737e-06
1.92241e-05
-1.30609e-05
2.10092e-05
-6.10214e-06
1.26368e-05
-2.13745e-06
2.42442e-05
-1.82778e-05
1.33526e-05
-7.85303e-06
2.26677e-05
-1.03543e-05
2.47744e-05
-6.65862e-06
1.38785e-05
1.24041e-05
2.23559e-05
4.13463e-06
2.03696e-05
5.31569e-06
1.09304e-05
4.2899e-06
1.76532e-05
1.10896e-05
1.69479e-05
1.10565e-05
1.03385e-05
1.88786e-05
4.21501e-06
1.93679e-05
2.56113e-05
1.95959e-06
-1.10736e-05
2.92894e-06
-8.31614e-06
4.61175e-06
-5.94537e-06
5.53818e-06
-1.19254e-05
1.29387e-05
-6.31348e-06
8.40864e-06
-8.97135e-06
1.6911e-05
-1.20698e-05
9.48018e-06
-5.63002e-06
1.91052e-05
-1.57272e-05
2.10007e-05
-4.03292e-06
1.25264e-05
-9.8035e-06
2.26103e-05
-1.79369e-05
2.25527e-05
-1.02967e-05
1.5387e-05
5.07044e-07
2.60401e-05
1.75102e-06
2.19536e-05
8.22115e-06
2.14527e-05
5.81656e-06
9.60539e-06
1.61372e-05
1.39357e-05
6.75928e-06
8.56979e-06
1.64224e-05
1.05023e-05
1.69462e-05
1.4554e-06
2.84147e-05
2.70667e-05
1.93689e-06
-1.30105e-05
1.90502e-06
-8.28427e-06
3.58786e-06
-7.62821e-06
9.93636e-06
-1.82739e-05
7.20547e-06
-3.58259e-06
7.99628e-06
-9.76215e-06
7.18379e-06
-1.12573e-05
1.50218e-05
-1.3468e-05
9.26012e-06
-9.9655e-06
1.67744e-05
-1.15472e-05
2.07582e-05
-1.37873e-05
1.27235e-05
-9.90211e-06
1.36718e-05
-1.12451e-05
2.52714e-05
-1.10925e-05
2.64645e-05
5.57864e-07
2.62004e-05
8.48523e-06
1.34609e-05
1.85561e-05
2.13756e-05
8.22258e-06
6.68815e-06
2.14467e-05
6.1549e-06
1.69556e-05
1.01497e-05
1.29514e-05
8.87159e-06
2.96928e-05
3.59383e-05
5.62165e-07
-1.35727e-05
2.40642e-06
-1.01285e-05
6.59598e-06
-1.18178e-05
3.15546e-06
-1.48333e-05
6.85285e-06
-7.27998e-06
9.62055e-06
-1.25298e-05
1.1042e-05
-1.26787e-05
1.4118e-05
-1.65441e-05
1.58626e-05
-1.17101e-05
1.73247e-05
-1.30093e-05
1.21649e-05
-8.62748e-06
1.15626e-05
-9.29986e-06
1.99777e-05
-1.96602e-05
1.42e-05
-5.31481e-06
2.71583e-05
-1.24004e-05
2.51147e-05
1.05289e-05
2.70463e-05
1.66245e-05
1.34494e-05
2.18195e-05
1.6489e-05
1.84071e-05
7.40704e-06
2.60376e-05
6.28851e-06
1.40699e-05
1.15529e-05
2.44285e-05
4.74912e-05
-2.40136e-07
-1.33325e-05
-7.15436e-07
-9.65322e-06
1.66808e-06
-1.42013e-05
3.55149e-06
-1.67168e-05
7.59604e-06
-1.13245e-05
4.79693e-06
-9.73074e-06
1.0101e-05
-1.79828e-05
1.40153e-05
-2.04584e-05
1.67327e-05
-1.44275e-05
1.64511e-05
-1.27277e-05
1.0313e-05
-2.48931e-06
1.59374e-05
-1.49242e-05
7.39191e-06
-1.11147e-05
1.78829e-05
-1.58058e-05
1.25165e-05
-7.03408e-06
2.80632e-05
-5.01778e-06
2.92484e-05
1.54392e-05
1.73547e-05
3.37132e-05
2.59657e-05
9.79614e-06
1.59595e-05
3.60437e-05
1.59945e-05
1.40349e-05
1.93806e-05
2.10424e-05
6.68717e-05
-4.20548e-05
4.20548e-05
-9.07516e-05
4.86968e-05
-9.46418e-05
3.89012e-06
-8.08473e-05
-1.37945e-05
-6.11871e-05
-1.96602e-05
-5.42865e-05
-6.90053e-06
-5.31406e-05
-1.14592e-06
-5.30526e-05
-8.79749e-08
-5.41512e-05
1.09857e-06
-5.61998e-05
2.0486e-06
-5.31979e-05
-3.00189e-06
-4.96528e-05
-3.54513e-06
-4.80613e-05
-1.59151e-06
-4.43864e-05
-3.67487e-06
-2.47793e-05
-1.96071e-05
-2.28608e-05
-1.91841e-06
-2.93955e-05
6.53468e-06
-1.60956e-05
-1.33e-05
-1.60956e-05
-3.51898e-05
7.72446e-05
-6.74358e-05
8.09428e-05
-6.87733e-05
5.22765e-06
-5.26477e-05
-2.99201e-05
-2.09849e-05
-5.13229e-05
-9.13818e-06
-1.87473e-05
-1.50714e-05
4.78726e-06
-2.03425e-05
5.18315e-06
-2.64265e-05
7.18262e-06
-3.17668e-05
7.38891e-06
-3.06908e-05
-4.07792e-06
-2.90861e-05
-5.14986e-06
-1.73446e-05
-1.3333e-05
-1.78417e-05
-3.17779e-06
-2.04301e-05
-1.70187e-05
-2.1158e-05
-1.19054e-06
-1.37482e-05
-8.75102e-07
-1.18644e-05
-1.51838e-05
-2.79599e-05
-2.89253e-05
0.00010617
-5.49511e-05
0.000106969
-5.63916e-05
6.66819e-06
-2.2767e-05
-6.35446e-05
-1.14931e-05
-6.25969e-05
1.76477e-05
-4.78882e-05
7.03519e-06
1.53998e-05
6.59889e-06
5.61945e-06
8.69823e-06
5.08327e-06
-6.42603e-06
2.25132e-05
-1.31088e-05
2.60483e-06
-1.27024e-05
-5.5562e-06
-1.92276e-05
-6.80783e-06
-1.32299e-05
-9.17548e-06
-2.48746e-05
-5.37402e-06
-1.42539e-05
-1.18112e-05
-8.76726e-06
-6.36178e-06
-2.19816e-06
-2.17529e-05
-3.01581e-05
-1.9846e-05
0.000126016
-3.1873e-05
0.000118996
-3.32881e-05
8.08332e-06
-3.31083e-05
-6.37245e-05
-6.79567e-06
-8.89095e-05
2.37421e-05
-7.84259e-05
2.59557e-05
1.31862e-05
1.66978e-05
1.48774e-05
1.56578e-05
6.12325e-06
1.20094e-05
2.61616e-05
4.50369e-06
1.01106e-05
2.94794e-06
-4.00045e-06
-8.62838e-07
-2.99705e-06
-5.53989e-06
-4.49843e-06
-4.25047e-06
-6.66345e-06
-3.98447e-06
-1.20772e-05
3.49893e-06
-1.38452e-05
3.12751e-06
-2.13815e-05
-2.70306e-05
-1.21202e-05
0.000138136
-1.76235e-05
0.000124499
-2.30214e-05
1.34812e-05
-1.76406e-05
-6.91053e-05
5.51743e-06
-0.000112067
1.84553e-05
-9.13638e-05
4.5041e-05
-1.33995e-05
4.33313e-05
1.65871e-05
2.41055e-05
2.5349e-05
3.95429e-05
1.07242e-05
2.78587e-05
2.17948e-05
1.02777e-05
1.35805e-05
5.10693e-06
2.17371e-06
6.50897e-07
-4.23905e-08
-1.52368e-06
-4.48888e-06
-1.02062e-07
-1.34988e-05
7.7892e-06
-2.17364e-05
4.56142e-06
-1.81537e-05
-2.24692e-05
-4.7659e-06
0.000142902
-6.79239e-07
0.000120412
-8.80089e-06
2.16028e-05
-2.43873e-06
-7.54675e-05
1.82481e-05
-0.000132754
2.33016e-05
-9.64174e-05
5.88703e-05
-4.89681e-05
6.06807e-05
1.47767e-05
6.70321e-05
1.89976e-05
6.3518e-05
1.42383e-05
4.94472e-05
3.58656e-05
3.45412e-05
2.84866e-05
1.12619e-05
2.5453e-05
4.71509e-06
6.5044e-06
2.05255e-06
-1.82633e-06
1.45301e-06
-1.28992e-05
6.98244e-06
-2.72659e-05
3.63689e-06
-1.48082e-05
-1.88323e-05
6.42248e-06
0.00013648
1.15751e-05
0.00011526
1.39427e-05
1.92352e-05
9.32561e-06
-7.08503e-05
1.58956e-05
-0.000139324
2.34374e-05
-0.000103959
2.80802e-05
-5.3611e-05
5.63356e-05
-1.34787e-05
6.33885e-05
1.19447e-05
6.65292e-05
1.10976e-05
6.07078e-05
4.16869e-05
4.84184e-05
4.07759e-05
3.3316e-05
4.05555e-05
9.94104e-06
2.98794e-05
4.59323e-06
3.52148e-06
6.53162e-06
-1.48376e-05
1.03661e-05
-3.11003e-05
8.55107e-06
-1.29931e-05
-1.02812e-05
2.01922e-05
0.000116287
3.68334e-05
9.86184e-05
3.16458e-05
2.44228e-05
3.70268e-05
-7.62313e-05
2.1173e-05
-0.000123471
2.34763e-05
-0.000106262
2.70614e-05
-5.71961e-05
5.13566e-05
-3.77739e-05
5.74703e-05
5.83102e-06
3.40973e-05
3.44706e-05
2.9001e-05
4.67832e-05
4.53909e-05
2.4386e-05
3.70292e-05
4.89172e-05
2.75948e-05
3.93138e-05
2.03137e-05
1.08025e-05
1.6724e-05
-1.12479e-05
8.47218e-06
-2.28485e-05
1.35538e-05
-1.80747e-05
3.27255e-06
2.42787e-06
-1.57604e-05
2.25066e-06
-9.47602e-06
4.26501e-06
-1.62156e-05
3.7063e-06
-1.6158e-05
1.2985e-05
-2.06032e-05
2.23159e-05
-1.90616e-05
2.50825e-05
-2.07494e-05
1.99295e-05
-1.53054e-05
1.79515e-05
-1.24495e-05
1.03852e-05
-5.16146e-06
3.52581e-06
4.3701e-06
-9.24347e-07
-1.04741e-05
-3.22868e-06
-8.81041e-06
2.71456e-06
-2.1749e-05
2.14008e-05
-2.57203e-05
4.2793e-05
-2.64099e-05
5.65147e-05
1.71742e-06
7.1297e-05
1.8931e-05
3.59272e-05
4.51659e-05
5.67108e-05
1.52602e-05
3.67787e-05
3.3967e-05
4.03879e-05
1.74333e-05
3.42339e-05
7.30257e-05
-2.09138e-06
-1.3669e-05
8.53597e-06
-2.01034e-05
1.1076e-05
-1.87556e-05
2.05615e-05
-2.56435e-05
1.13006e-05
-1.13424e-05
1.38309e-05
-2.15919e-05
1.80725e-06
-8.72574e-06
-1.09964e-05
-2.50175e-06
-3.37867e-05
1.03408e-05
-5.01399e-05
1.11918e-05
-6.87427e-05
2.29729e-05
-7.65235e-05
-2.69333e-06
-6.97424e-05
-1.55915e-05
-5.49262e-05
-3.65652e-05
-3.29935e-05
-4.76531e-05
-1.69206e-05
-4.24828e-05
2.00977e-05
-3.53009e-05
3.31583e-05
5.87044e-06
6.7222e-05
1.11022e-05
4.82827e-05
3.41995e-05
8.02362e-05
2.0134e-06
8.88896e-05
8.7799e-06
3.64559e-05
8.66675e-05
9.47829e-06
-2.31473e-05
2.07496e-05
-3.13746e-05
2.59822e-05
-2.39882e-05
1.37869e-05
-1.34483e-05
1.27909e-05
-1.03464e-05
1.39874e-06
-1.01997e-05
-1.03566e-05
3.02965e-06
-3.40173e-05
2.11589e-05
-4.99029e-05
2.62263e-05
-7.18415e-05
3.31304e-05
-5.60022e-05
7.13364e-06
-8.59213e-05
2.72258e-05
-8.63223e-05
-1.51905e-05
-9.19515e-05
-3.0936e-05
-9.22896e-05
-4.73149e-05
-8.47332e-05
-5.00392e-05
-5.82749e-05
-6.17592e-05
-1.83517e-05
-3.40528e-05
9.65205e-06
-1.69016e-05
4.07054e-05
3.14616e-06
5.50767e-05
-1.23579e-05
6.00529e-05
3.80374e-06
2.44212e-05
7.20876e-05
4.58806e-05
-6.90279e-05
4.61524e-05
-3.16464e-05
4.24997e-05
-2.03355e-05
3.44121e-05
-5.36065e-06
2.11232e-05
2.94249e-06
9.54977e-07
9.96851e-06
-1.47576e-05
1.87423e-05
-5.27059e-05
5.91072e-05
-5.56007e-05
2.91211e-05
-4.53458e-05
2.28755e-05
-5.39629e-05
1.57507e-05
-3.93909e-05
1.26538e-05
-6.57787e-05
1.11973e-05
-8.28656e-05
-1.3849e-05
-0.000110955
-1.92254e-05
-0.000125969
-3.50251e-05
-0.000117919
-6.98092e-05
-9.43139e-05
-5.76582e-05
-6.18766e-05
-4.93389e-05
-1.93322e-05
-3.93982e-05
2.12808e-05
-5.2971e-05
3.97319e-05
-1.46474e-05
-8.94161e-06
7.30947e-05
2.90894e-05
-9.81174e-05
7.79575e-05
-8.05146e-05
8.05845e-05
-2.29624e-05
7.03286e-05
4.89517e-06
5.03942e-05
2.28769e-05
1.51077e-05
4.5255e-05
-2.4178e-05
5.8028e-05
-2.98566e-05
6.47858e-05
-2.47147e-05
2.39792e-05
-2.47147e-05
2.28755e-05
-2.69342e-05
1.79702e-05
-4.7771e-05
3.34906e-05
-5.74009e-05
2.08272e-05
-8.46248e-05
1.33748e-05
-7.94297e-05
-2.44205e-05
-8.08359e-05
-3.36188e-05
-0.000130248
-2.03969e-05
-0.000131839
-5.60677e-05
-0.000140583
-4.05944e-05
-0.000126253
-5.37283e-05
-9.54473e-05
-8.37767e-05
-6.44424e-05
-4.56523e-05
-3.28744e-05
-4.05096e-05
3.02699e-05
-0.000128387
4.89966e-05
-9.92413e-05
7.04091e-05
-4.43749e-05
3.72424e-05
3.8062e-05
1.85496e-05
4.15697e-05
6.96827e-07
6.31078e-05
-1.79511e-05
7.6676e-05
-1.55717e-05
6.24064e-05
-2.97195e-05
3.81269e-05
-6.25003e-05
5.56564e-05
-8.23891e-05
3.78589e-05
-0.000109017
6.01184e-05
-0.000127279
3.90894e-05
-0.000132225
1.83208e-05
-0.00014818
-8.46531e-06
-0.000154685
-2.71136e-05
-0.000141539
-3.35431e-05
-0.000156594
-4.10126e-05
-0.000105245
-9.19437e-05
-8.24526e-05
-7.65207e-05
-0.00012164
-4.45893e-05
-0.000119946
-4.73466e-05
-4.80914e-05
-0.000104729
2.3365e-05
-0.000151752
7.30327e-06
-8.31796e-05
3.10997e-05
-6.81714e-05
4.21056e-05
2.7056e-05
1.06611e-05
7.30141e-05
-1.55959e-05
8.93648e-05
-3.24335e-05
9.35136e-05
-4.09302e-05
7.09031e-05
-7.39529e-05
7.11497e-05
-0.000103767
8.54702e-05
-0.00012099
5.50826e-05
-0.000136659
7.57866e-05
-0.000131389
3.38194e-05
-0.000137862
2.47944e-05
-0.000140543
-5.7845e-06
-0.000135927
-3.17292e-05
-0.000136136
-3.33349e-05
-0.000127704
-4.94446e-05
-0.00013655
-8.30971e-05
-0.000145071
-6.80003e-05
-0.000123918
-6.57423e-05
-0.000102057
-6.9207e-05
-6.11283e-05
-8.90203e-05
-1.38151e-05
-0.000137937
1.74772e-05
-0.000114472
-3.70392e-06
-4.69902e-05
-2.11259e-05
4.4478e-05
-2.72904e-05
7.91786e-05
-4.12528e-05
0.000103327
-4.46709e-05
9.69317e-05
-5.9719e-05
8.59512e-05
-8.40846e-05
9.55153e-05
-9.2515e-05
9.39005e-05
-0.000118402
8.09693e-05
-0.000115834
7.32188e-05
-0.000112637
3.06221e-05
-0.000101027
1.31845e-05
-9.19849e-05
-1.48262e-05
-9.84166e-05
-2.52975e-05
-5.18046e-05
-7.99469e-05
-3.51936e-05
-6.60556e-05
-6.62967e-05
-5.1994e-05
-6.70458e-05
-6.72511e-05
-8.30002e-05
-4.9788e-05
-7.83519e-05
-7.38553e-05
-6.53975e-05
-7.40827e-05
-2.86764e-05
-0.000109261
-5.63177e-05
-8.68307e-05
-6.88507e-05
-3.44572e-05
-7.17129e-05
4.73401e-05
-7.0683e-05
7.81487e-05
-6.46718e-05
9.73161e-05
-6.52271e-05
9.74869e-05
-7.29436e-05
9.36678e-05
-7.92491e-05
0.000101821
-8.37868e-05
9.84382e-05
-8.3894e-05
8.10765e-05
-6.37817e-05
5.31064e-05
-5.39188e-05
2.07592e-05
-2.30852e-05
-1.76491e-05
1.37951e-05
-5.17065e-05
3.43025e-05
-4.58049e-05
3.15661e-06
-4.8801e-05
-2.54356e-05
-3.74634e-05
-2.68547e-05
-5.05749e-05
-4.26171e-05
-5.14888e-05
-1.95861e-05
-7.2819e-05
-1.50527e-05
-7.83886e-05
-4.61281e-05
-3.43222e-05
-5.09471e-05
-5.83136e-05
-6.20508e-05
-7.57269e-05
-8.78355e-05
-8.67247e-06
-9.4225e-05
5.37296e-05
-6.85603e-05
5.2484e-05
-6.50859e-05
9.38416e-05
-6.48655e-05
9.72666e-05
-6.94174e-05
9.82197e-05
-7.07092e-05
0.000103113
-3.98638e-05
6.75928e-05
-2.76212e-05
6.88339e-05
-1.09809e-06
2.65833e-05
3.18091e-05
-1.2148e-05
6.47668e-05
-5.06068e-05
8.27207e-05
-6.96604e-05
8.18088e-05
-4.4893e-05
6.8085e-05
-3.50772e-05
6.10831e-05
-3.04615e-05
3.79777e-05
-2.74695e-05
3.52538e-05
-4.87649e-05
6.55711e-06
-4.41224e-05
-1.88232e-05
-5.30083e-05
-5.72422e-05
-7.70908e-06
-1.67835e-05
-4.15301e-05
-4.82624e-05
-4.4248e-05
-4.51162e-05
-1.18186e-05
-4.69436e-05
5.5557e-05
-8.49428e-05
9.04832e-05
-7.19129e-05
8.08116e-05
-6.5953e-05
9.13067e-05
-2.53169e-05
5.75835e-05
-1.81969e-05
9.59926e-05
-4.67867e-05
9.61826e-05
-8.14414e-06
3.01914e-05
1.97958e-05
-1.35669e-06
5.79084e-05
-5.02606e-05
9.81135e-05
-9.08119e-05
7.60025e-05
-4.75494e-05
0.00010113
-7.00204e-05
8.58688e-05
-1.98161e-05
6.34122e-05
-8.00489e-06
6.37815e-05
-2.78388e-05
4.24808e-05
-2.74642e-05
4.97495e-05
-5.13911e-05
3.76158e-05
-4.08747e-05
-4.01099e-05
2.04834e-05
-2.33898e-05
-1.81404e-05
-7.5982e-05
8.34421e-06
-9.19872e-05
4.1865e-06
-8.58389e-05
4.94087e-05
-5.41628e-05
5.88072e-05
-4.09694e-05
6.76183e-05
-3.83031e-05
8.86404e-05
-4.52315e-05
6.45118e-05
-3.42699e-05
8.50311e-05
-1.84496e-05
8.03623e-05
6.50875e-06
5.23298e-06
2.50625e-05
-1.99104e-05
7.62436e-05
-0.000101442
0.000111282
-0.000125851
0.000173012
-0.000109279
0.000215115
-0.000112124
0.000233256
-3.79571e-05
0.000242078
-1.68266e-05
0.000219538
-5.29947e-06
0.000178314
1.37599e-05
8.67737e-05
4.01492e-05
4.83808e-05
-2.48182e-06
-3.3229e-05
4.15e-05
-3.66335e-05
1.84931e-05
-5.02707e-05
2.19814e-05
-8.67818e-05
4.06976e-05
-8.18916e-05
4.45186e-05
-5.55092e-05
3.24248e-05
-6.67244e-05
7.88334e-05
-5.08383e-05
7.27543e-05
-1.64545e-05
3.0128e-05
-8.36555e-06
7.69421e-05
1.81874e-05
5.38093e-05
2.72878e-05
-3.86741e-06
8.04247e-05
-7.30473e-05
0.000121483
-0.0001425
0.000146917
-0.000151284
0.00017386
-0.000136222
0.00012885
-6.71134e-05
0.000156006
-6.51136e-05
0.000170888
-3.17081e-05
0.000143803
2.1785e-05
0.000124384
3.31788e-05
0.000125453
3.90801e-05
9.83143e-05
2.46572e-05
1.70768e-05
4.80084e-05
-2.76329e-05
4.6126e-05
-3.63628e-05
3.07114e-05
-4.604e-05
5.03747e-05
-5.01243e-05
4.86029e-05
-7.95126e-05
6.18131e-05
-4.56585e-05
4.49794e-05
-2.40339e-05
5.11297e-05
-1.18287e-05
1.79228e-05
2.56142e-05
3.94992e-05
8.09079e-05
-1.48441e-06
0.00011351
-3.64698e-05
0.000150145
-0.000109682
0.000164589
-0.000156944
0.000165083
-0.000151779
0.000171127
-0.000142265
0.000218354
-0.000114341
0.00021395
-6.07098e-05
0.000185355
-3.11301e-06
0.00017233
3.48096e-05
0.000163742
4.17674e-05
0.000168893
3.39291e-05
0.000130918
6.26325e-05
7.10436e-05
7.69509e-05
-1.68499e-05
6.29759e-05
-2.80712e-05
4.19327e-05
-3.27819e-05
5.50854e-05
-2.96273e-05
4.54483e-05
-2.71667e-05
5.93526e-05
-4.71609e-05
6.49736e-05
-5.60594e-06
9.57475e-06
1.21498e-05
1.67079e-07
6.5488e-05
-1.38391e-05
0.000102648
-3.86441e-05
0.000207566
-0.000141388
0.000186567
-8.86821e-05
0.000178529
-0.000148907
0.00017308
-0.000146329
0.000175495
-0.00014468
0.000194848
-0.000133694
0.000227896
-9.37579e-05
0.000256934
-3.21507e-05
0.000286502
5.24121e-06
0.000275596
5.2674e-05
0.000197364
0.000112161
0.000179768
8.02284e-05
5.22425e-05
0.00019857
-7.07169e-06
7.00476e-05
-1.54126e-05
5.02736e-05
-3.00542e-05
6.9727e-05
-2.89598e-05
4.43539e-05
-1.79201e-05
4.83129e-05
4.47426e-06
4.25792e-05
2.86803e-05
-1.46312e-05
9.56245e-05
-6.67771e-05
0.000135232
-5.34462e-05
0.000189428
-9.28402e-05
0.00012221
-7.41708e-05
0.000204941
-0.000171413
0.000165865
-0.000109831
0.000166828
-0.000147292
0.0001671
-0.000144953
0.000110177
-7.67704e-05
0.000120073
-0.000103654
0.000185206
-9.72838e-05
0.000211191
-2.07442e-05
0.000228362
3.55035e-05
0.000267445
7.30776e-05
0.000281785
6.58886e-05
9.99263e-05
0.000234101
6.38048e-07
6.94095e-05
-4.07532e-06
5.4987e-05
-4.74371e-06
7.03954e-05
1.07817e-05
2.88285e-05
1.39242e-05
4.51705e-05
5.80372e-05
-1.5338e-06
0.000116905
-7.3499e-05
0.00014058
-9.04527e-05
0.000173549
-8.64151e-05
0.000170636
-8.99272e-05
0.000220953
-0.000124488
0.000193695
-0.000144155
0.000176253
-9.23889e-05
0.000166408
-0.000137447
0.000154601
-0.000133146
0.000193756
-0.000115926
0.000172562
-8.24591e-05
0.000152451
-7.71733e-05
0.000198457
-6.67501e-05
0.000211757
2.22033e-05
0.000197274
8.75608e-05
0.000137173
0.000125989
0.000127355
0.000109745
2.20335e-06
6.72062e-05
5.4881e-07
5.66415e-05
1.21005e-05
5.88438e-05
1.17324e-05
2.91966e-05
2.1155e-05
3.57479e-05
2.73665e-05
-7.74531e-06
5.81473e-05
-0.00010428
6.43959e-05
-9.67014e-05
0.000141466
-0.000163486
0.00014992
-9.83804e-05
9.69842e-05
-7.15521e-05
8.10221e-05
-0.000128193
0.000129633
-0.000141
0.000122744
-0.000130558
0.00012407
-0.000134472
0.000126484
-0.00011834
0.000111253
-6.72275e-05
0.000128126
-9.4047e-05
0.000109495
-4.81189e-05
0.000137752
-6.05358e-06
0.000153472
7.18413e-05
0.000197265
8.21963e-05
0.000136741
0.000187879
2.47739e-06
6.47288e-05
5.63556e-06
5.34834e-05
1.94874e-05
4.49919e-05
1.72753e-05
3.14087e-05
3.44643e-05
1.85588e-05
5.35102e-05
-2.67912e-05
2.72672e-05
-7.80367e-05
3.44475e-05
-0.000103882
7.33393e-05
-0.000202377
0.0001256
-0.000150641
0.000157105
-0.000103058
0.000134076
-0.000105163
0.000116356
-0.000123279
0.000115184
-0.000129386
6.07989e-05
-8.00873e-05
5.5479e-05
-0.00011302
9.64763e-05
-0.000108225
9.52784e-05
-9.28491e-05
0.00011283
-6.56708e-05
0.000120204
-1.34277e-05
0.000134877
5.71685e-05
0.000139251
7.78225e-05
0.000143359
0.000132633
9.05187e-07
6.38236e-05
5.9052e-07
5.3798e-05
2.92445e-06
4.2658e-05
4.68721e-06
2.96459e-05
2.70961e-06
2.05365e-05
-1.0782e-05
-1.32996e-05
2.60986e-05
-0.000114917
2.95091e-05
-0.000107292
6.6053e-05
-0.000238921
3.14581e-05
-0.000116046
7.57797e-05
-0.00014738
6.75264e-05
-9.69101e-05
8.43008e-05
-0.000140054
8.84201e-05
-0.000133505
0.000113702
-0.00010537
0.000104692
-0.00010401
9.5525e-05
-9.90574e-05
9.10481e-05
-8.83722e-05
9.81973e-05
-7.28199e-05
9.5261e-05
-1.04915e-05
0.000103997
4.84325e-05
0.000112777
6.90425e-05
0.000145569
0.000110567
-3.21141e-06
6.7035e-05
-2.39333e-06
5.29799e-05
1.32239e-05
2.70407e-05
4.83201e-06
3.80379e-05
-4.05249e-06
2.9421e-05
-1.63181e-05
-1.03398e-06
-2.63664e-05
-0.000104869
1.81085e-05
-0.000151767
1.81482e-05
-0.000238961
2.46051e-05
-0.000122503
4.2654e-05
-0.000165428
9.23685e-05
-0.000146625
9.93138e-05
-0.000146999
0.000109335
-0.000143526
0.000109461
-0.000105495
0.000102522
-9.70707e-05
9.66606e-05
-9.31963e-05
9.29023e-05
-8.4614e-05
5.44829e-05
-3.44004e-05
7.1813e-05
-2.78217e-05
6.60546e-05
5.41908e-05
2.95734e-05
0.000105524
0.000102695
7.24474e-05
-1.453e-06
6.8488e-05
5.94718e-06
4.55798e-05
7.59226e-06
2.53956e-05
6.42319e-06
3.92069e-05
4.32463e-06
3.15195e-05
8.66671e-06
-5.37605e-06
3.94117e-06
-0.000100143
1.16993e-05
-0.000159525
8.6406e-06
-0.000235903
5.93249e-05
-0.000173187
4.17083e-05
-0.000147812
5.06648e-05
-0.000155581
6.25951e-05
-0.000158929
7.86386e-05
-0.00015957
8.65984e-05
-0.000113455
9.1484e-05
-0.000101956
9.63082e-05
-9.80204e-05
9.45434e-05
-8.28492e-05
8.71044e-05
-2.69615e-05
6.47775e-05
-5.4947e-06
6.27956e-05
5.61727e-05
8.12675e-05
8.70517e-05
0.000114867
6.90956e-05
1.09271e-06
6.73953e-05
1.03664e-05
3.6306e-05
1.48765e-05
2.08855e-05
2.50139e-05
2.90696e-05
4.60882e-05
1.04452e-05
7.50311e-05
-3.43189e-05
3.376e-05
-5.88724e-05
4.17392e-05
-0.000167504
2.10377e-05
-0.000215201
2.80347e-05
-0.000180184
2.1972e-05
-0.000141749
3.75887e-05
-0.000171198
4.58801e-05
-0.000167221
7.01948e-05
-0.000183885
4.61925e-05
-8.94529e-05
2.03125e-05
-7.60764e-05
3.33074e-05
-0.000111015
3.50298e-05
-8.45716e-05
5.62461e-05
-4.81778e-05
3.597e-05
1.47815e-05
2.8571e-05
6.35716e-05
2.74913e-05
8.81314e-05
0.000145591
-3.23227e-06
3.09306e-06
6.43023e-05
2.1778e-05
1.76211e-05
2.75438e-05
1.51197e-05
3.60159e-05
2.05975e-05
6.06583e-05
-1.41972e-05
7.80878e-05
-5.17485e-05
0.000104822
-8.56063e-05
3.68726e-05
-9.95551e-05
2.27881e-05
-0.000201117
2.31977e-05
-0.000180594
2.21453e-05
-0.000140697
3.21796e-05
-0.000181232
4.70436e-05
-0.000182085
-7.31346e-06
-0.000129528
-5.20075e-06
-9.15656e-05
2.58237e-05
-0.000107101
2.07695e-05
-0.000105961
1.65325e-05
-8.03346e-05
6.61285e-06
-3.82581e-05
8.87771e-06
1.25166e-05
-6.34606e-06
7.87954e-05
-3.07769e-05
0.000112562
0.000118825
-4.011e-06
1.08874e-05
5.34149e-05
1.6233e-05
1.22754e-05
4.18268e-05
-1.0474e-05
6.64207e-05
-3.99638e-06
8.57881e-05
-3.35646e-05
9.96958e-05
-6.56562e-05
0.000102014
-8.79247e-05
9.17939e-05
-8.93348e-05
6.76048e-05
-0.000176928
3.62204e-05
-0.000149209
1.37764e-05
-0.000118253
1.01179e-05
-0.000177573
4.96119e-06
-0.000176928
1.52343e-06
-0.00012609
1.82326e-05
-0.000108275
-3.86594e-06
-8.50023e-05
-2.31039e-05
-8.67231e-05
-3.12305e-05
-7.2208e-05
-6.08142e-05
-8.67444e-06
-6.4057e-05
1.57593e-05
-5.03806e-05
6.5119e-05
-1.66909e-05
7.88724e-05
0.000108792
-6.65825e-06
1.09186e-05
4.24962e-05
1.92595e-05
3.93455e-06
3.51151e-05
-2.63296e-05
6.63171e-05
-3.51984e-05
9.10212e-05
-5.82686e-05
0.000108222
-8.28566e-05
8.76863e-05
-6.73894e-05
0.000110422
-0.00011207
2.97606e-05
-9.62663e-05
1.36778e-05
-0.000133126
1.39614e-06
-0.000105971
-1.0734e-05
-0.000165443
-3.10033e-05
-0.000156659
1.25208e-05
-0.000169614
9.25414e-06
-0.000105008
-3.52935e-05
-4.04547e-05
-5.4322e-05
-6.76947e-05
-8.88305e-05
-3.76994e-05
-5.73943e-05
-4.01107e-05
-7.59374e-05
3.43025e-05
-4.67306e-05
3.59122e-05
-1.13798e-05
4.35216e-05
9.8749e-05
-1.33661e-06
1.9079e-05
2.34173e-05
2.72389e-05
-4.22535e-06
2.04505e-05
-1.95412e-05
5.56425e-05
-7.03904e-05
4.41906e-05
-4.68168e-05
5.78559e-05
-9.6522e-05
0.000103987
-0.00011352
7.29842e-05
-8.10676e-05
5.65691e-05
-7.98513e-05
2.71773e-05
-0.000103734
-9.52288e-06
-6.9271e-05
-3.32264e-05
-0.00014174
-3.42614e-05
-0.000155624
-2.38052e-05
-0.00018007
-3.6138e-05
-9.26752e-05
-1.89908e-05
-5.76019e-05
-3.53189e-05
-5.13666e-05
-3.6899e-05
-3.61193e-05
-6.02101e-05
-1.67996e-05
-5.02397e-05
2.4332e-05
-3.23913e-05
1.80637e-05
-2.06731e-05
3.18034e-05
7.92942e-05
-1.21835e-06
3.01592e-05
-6.74195e-06
3.69777e-05
-1.10439e-05
3.85516e-05
-2.11151e-05
1.96741e-05
-5.15129e-05
7.1078e-05
-9.82206e-05
5.47372e-05
-8.01812e-05
6.05145e-05
-0.000119298
5.66188e-05
-7.71718e-05
4.66663e-05
-6.98989e-05
-2.3895e-05
-3.31732e-05
-5.79955e-05
-3.51705e-05
-5.52463e-05
-0.000144489
-9.97856e-05
-0.000111085
-7.09613e-05
-0.000208894
-4.07788e-05
-0.000122858
-3.86021e-05
-5.97786e-05
-1.78573e-05
-7.21114e-05
-1.01605e-05
-4.3816e-05
-2.31667e-05
-3.79344e-06
-1.22981e-05
1.34633e-05
-1.38939e-05
1.96595e-05
-2.34051e-05
4.13146e-05
6.53166e-05
-9.42755e-06
2.12637e-05
-2.80057e-05
1.84085e-05
-8.18861e-06
1.90497e-05
-2.17563e-05
4.2653e-05
-7.51162e-05
3.07433e-05
-8.6311e-05
3.67955e-05
-8.62334e-05
3.17689e-05
-0.000114271
-3.35225e-06
-4.20506e-05
-5.68391e-05
-1.6412e-05
-8.29547e-05
-7.05758e-06
-8.08401e-05
-3.72851e-05
-8.56153e-05
-0.000139714
-9.58029e-05
-0.000100897
-9.08969e-05
-0.000213801
-7.87505e-06
-0.00020588
-6.84693e-06
-6.08068e-05
-1.21042e-05
-6.68541e-05
-1.02382e-05
-4.5682e-05
-1.47979e-05
7.6628e-07
-1.06067e-05
9.2721e-06
-1.28622e-05
2.1915e-05
-3.97706e-06
3.24295e-05
5.53913e-05
5.94825e-06
1.5914e-05
-4.39197e-05
1.28164e-05
-5.09099e-06
1.60149e-05
-2.49548e-05
1.96235e-05
-7.87248e-05
6.13322e-05
-0.00012802
5.32215e-05
-7.81227e-05
-1.74594e-07
-6.08749e-05
-2.72396e-05
-1.49856e-05
-7.64871e-05
3.28355e-05
-8.89999e-05
5.45524e-06
-7.61003e-05
-5.01847e-05
-7.32813e-05
-0.000142533
-7.10056e-05
-0.000103173
-6.83674e-05
-0.000216439
-5.21947e-05
-0.000222052
-2.2611e-05
-9.03905e-05
-3.66139e-06
-8.58036e-05
-2.79445e-06
-4.6549e-05
-4.21836e-06
2.19019e-06
-4.52325e-06
9.57699e-06
-8.16894e-06
2.55607e-05
-1.00373e-05
3.42978e-05
3.29582e-05
1.23957e-05
-4.95464e-06
-3.89651e-05
-1.00933e-06
-9.03629e-06
8.09351e-06
-3.40577e-05
3.19748e-05
-0.000102606
2.55185e-05
-0.000121563
2.06574e-05
-7.32616e-05
1.68542e-05
-5.70717e-05
-9.74572e-06
1.16143e-05
-3.98342e-05
6.2924e-05
-4.2531e-05
8.15213e-06
-1.40997e-05
-7.8616e-05
-5.04115e-05
-0.000106221
-3.48265e-05
-0.000118758
-3.17739e-05
-0.000219491
-2.14561e-05
-0.00023237
-7.4349e-06
-0.000104412
3.67566e-06
-9.69142e-05
-4.34731e-06
-3.8526e-05
-1.06695e-05
8.51235e-06
-8.27273e-06
7.18025e-06
2.35124e-06
1.49367e-05
9.53708e-06
2.7112e-05
3.3933e-05
8.56227e-06
-4.61467e-07
-3.85036e-05
8.03103e-06
-1.75288e-05
2.00927e-05
-4.61194e-05
6.26137e-06
-8.87747e-05
3.02486e-05
-0.000145551
3.6007e-05
-7.902e-05
2.48671e-05
-4.59318e-05
3.05241e-06
3.34291e-05
-1.05919e-05
7.65683e-05
-1.66274e-05
1.41876e-05
-2.24187e-05
-7.28247e-05
1.05906e-05
-0.00013923
1.37577e-05
-0.000121925
7.95829e-06
-0.000213692
-8.85892e-06
-0.000215553
2.58642e-05
-0.000139135
1.42133e-05
-8.52632e-05
-1.74602e-07
-2.41381e-05
-6.13836e-07
8.95159e-06
-4.66569e-06
1.12321e-05
-9.16457e-07
1.11874e-05
3.86001e-06
2.23355e-05
2.06409e-05
1.71521e-05
-4.36913e-06
-3.41345e-05
8.8987e-06
-3.07966e-05
2.58356e-05
-6.30563e-05
3.18307e-05
-9.47698e-05
-6.88348e-06
-0.000106837
-6.39933e-06
-7.95042e-05
-2.77657e-06
-4.95545e-05
-1.47906e-05
4.54431e-05
1.84705e-05
4.33072e-05
3.09934e-05
1.66463e-06
1.10655e-05
-5.28967e-05
9.12018e-06
-0.000137285
5.83939e-05
-0.000171199
2.61808e-05
-0.000181479
8.59805e-06
-0.00019797
7.03898e-06
-0.000137576
-2.59786e-05
-5.22456e-05
-1.82724e-05
-3.18444e-05
-1.03666e-05
1.04579e-06
-5.88262e-06
6.74816e-06
-2.27026e-06
7.57507e-06
1.30845e-06
1.87568e-05
9.16656e-06
1.27828e-05
-5.52255e-06
-2.86119e-05
1.2577e-05
-4.88962e-05
2.49281e-05
-7.54074e-05
2.28175e-05
-9.26591e-05
1.1141e-05
-9.516e-05
-1.64595e-07
-6.81986e-05
-9.1757e-06
-4.05434e-05
-2.83978e-06
3.91072e-05
9.79836e-06
3.06691e-05
3.03869e-05
-1.89239e-05
4.75468e-05
-7.00567e-05
5.78453e-05
-0.000147583
4.49638e-05
-0.000158317
4.11727e-05
-0.000177688
1.83671e-05
-0.000175164
-1.4366e-06
-0.000117772
5.7745e-06
-5.94566e-05
-1.11976e-05
-1.48722e-05
-1.10954e-05
9.43563e-07
-6.89428e-06
2.54705e-06
-5.7808e-06
6.46158e-06
5.94681e-06
7.02918e-06
5.34236e-06
9.77099e-06
-7.66102e-06
-2.09509e-05
7.41962e-06
-6.39768e-05
9.63438e-06
-7.76222e-05
5.76157e-06
-8.87863e-05
-1.79007e-05
-7.14977e-05
-1.55631e-05
-7.05362e-05
-3.05029e-05
-2.56036e-05
-8.84667e-06
1.7451e-05
2.38881e-05
-2.06564e-06
4.30144e-05
-3.80503e-05
6.47612e-05
-9.18034e-05
7.3263e-05
-0.000156085
8.61406e-05
-0.000171195
2.22556e-05
-0.000113803
6.86577e-06
-0.000159775
-2.00317e-05
-9.08745e-05
-3.15941e-05
-4.78943e-05
-3.68211e-05
-9.64517e-06
-1.97746e-05
-1.61029e-05
-1.8015e-05
7.87364e-07
-8.45101e-06
-3.10236e-06
1.43584e-06
-2.85768e-06
-4.67983e-06
1.1458e-05
-5.09894e-06
-1.5852e-05
2.6704e-06
-7.17461e-05
2.06986e-06
-7.70217e-05
-1.34915e-05
-7.32249e-05
-3.20402e-05
-5.2949e-05
-4.35909e-05
-5.89855e-05
-4.38151e-05
-2.53794e-05
-1.54349e-05
-1.09292e-05
4.33844e-05
-6.08849e-05
6.31631e-05
-5.7829e-05
4.64641e-05
-7.51045e-05
3.45697e-05
-0.000144191
2.86607e-05
-0.000165286
4.86809e-05
-0.000133823
-1.62655e-05
-9.48282e-05
-3.00367e-05
-7.71033e-05
-3.78126e-05
-4.01184e-05
-2.28963e-05
-2.45614e-05
-2.67517e-05
-1.22475e-05
-1.29575e-05
-1.30068e-05
-7.82157e-06
-8.23831e-06
5.51016e-06
-1.61894e-05
-7.04813e-06
7.87845e-06
-5.52453e-06
-1.03274e-05
-3.12561e-06
-7.41451e-05
-1.10659e-05
-6.90813e-05
-3.47991e-05
-4.94918e-05
-4.93366e-05
-3.84115e-05
-6.74842e-05
-4.08379e-05
-2.95128e-05
-6.33508e-05
-7.2103e-06
-3.32317e-05
1.32061e-05
-8.13013e-05
5.71285e-05
-0.000101751
6.66809e-05
-8.46569e-05
6.40839e-05
-0.000141594
1.49557e-06
-0.000102697
-2.30648e-05
-0.000109263
-4.81876e-05
-6.97054e-05
-5.25332e-05
-7.27577e-05
-4.96924e-05
-4.29591e-05
-3.56414e-05
-3.86125e-05
-1.31495e-05
-3.47394e-05