/*--------------------------------*- C++ -*----------------------------------*\
| =========                 |                                                 |
| \\      /  F ield         | foam-extend: Open Source CFD                    |
|  \\    /   O peration     | Version:     4.1                                |
|   \\  /    A nd           | Web:         http://www.foam-extend.org         |
|    \\/     M anipulation  |                                                 |
\*---------------------------------------------------------------------------*/
FoamFile
{
    version     2.0;
    format      ascii;
    class       surfaceScalarField;
    location    "1";
    object      phi_0;
}
// * * * * * * * * * * * * * * * * * * * * * * * * * * * * * * * * * * * * * //

dimensions      [0 3 -1 0 0 0 0];

internalField   nonuniform List<scalar> 
4432
(
2.33921e-06
-2.33921e-06
2.31731e-06
2.18972e-08
5.95218e-06
-3.63487e-06
8.05021e-06
-2.09802e-06
7.37896e-06
6.7125e-07
8.57143e-06
-1.19248e-06
9.46954e-06
-8.98107e-07
1.07871e-05
-1.31757e-06
1.13377e-05
-5.50547e-07
1.44529e-05
-3.11524e-06
1.71078e-05
-2.65493e-06
2.84237e-05
-1.13159e-05
2.93147e-05
-8.90949e-07
3.08025e-05
-1.48783e-06
3.05389e-05
2.63608e-07
2.98004e-05
7.38481e-07
2.80018e-05
1.79865e-06
2.5941e-05
2.06073e-06
1.30298e-05
1.29112e-05
1.82294e-05
-5.19955e-06
1.12901e-05
6.93932e-06
7.33667e-06
3.9534e-06
7.33667e-06
2.38249e-06
-4.7217e-06
5.49658e-06
-3.09219e-06
6.60958e-06
-4.74788e-06
4.68716e-06
-1.75597e-07
7.62383e-06
-2.26542e-06
8.82304e-06
-2.39169e-06
1.02793e-05
-2.3544e-06
1.15614e-05
-2.59962e-06
2.26492e-05
-1.16383e-05
2.67842e-05
-7.25023e-06
2.96331e-05
-5.50392e-06
2.74078e-05
-9.09054e-06
2.81118e-05
-1.595e-06
2.95471e-05
-2.92308e-06
2.97868e-05
2.38932e-08
2.92014e-05
1.32389e-06
2.71829e-05
3.81713e-06
2.46509e-05
4.59275e-06
2.45969e-05
1.29652e-05
1.11268e-05
8.27058e-06
1.09027e-05
7.16344e-06
6.63904e-06
8.21702e-06
1.39757e-05
1.9187e-06
-6.64041e-06
5.72999e-06
-6.90347e-06
3.84187e-06
-2.85976e-06
9.064e-06
-5.39773e-06
7.5917e-06
-7.93123e-07
1.71092e-05
-1.19092e-05
1.77417e-05
-2.98696e-06
1.88102e-05
-3.66809e-06
1.15026e-05
-4.33075e-06
1.47555e-05
-1.05031e-05
1.59666e-05
-6.71503e-06
2.55472e-05
-1.86711e-05
2.50401e-05
-1.08784e-06
2.67143e-05
-4.59731e-06
2.53131e-05
1.42509e-06
1.41258e-05
1.25111e-05
1.47061e-05
3.23686e-06
2.44916e-05
-5.19277e-06
1.96569e-05
1.77999e-05
1.75708e-05
1.03567e-05
1.24714e-05
1.22628e-05
7.43727e-06
1.32511e-05
2.1413e-05
2.39931e-06
-9.03972e-06
2.75663e-06
-7.2608e-06
4.12306e-06
-4.22618e-06
9.58282e-06
-1.08575e-05
7.73178e-06
1.05792e-06
9.17524e-06
-1.33526e-05
9.74179e-06
-3.5535e-06
1.90384e-05
-1.29647e-05
2.08147e-05
-6.10709e-06
1.25358e-05
-2.22422e-06
2.40339e-05
-1.82131e-05
1.32764e-05
-7.91367e-06
2.25297e-05
-1.03411e-05
2.46782e-05
-6.74578e-06
1.38434e-05
1.22599e-05
2.22924e-05
4.06209e-06
2.03615e-05
5.16777e-06
1.09362e-05
4.23256e-06
1.76618e-05
1.10743e-05
1.69603e-05
1.10581e-05
1.03561e-05
1.88671e-05
4.21934e-06
1.93879e-05
2.56323e-05
1.94199e-06
-1.09817e-05
2.9057e-06
-8.22451e-06
4.57776e-06
-5.89824e-06
5.48229e-06
-1.1762e-05
1.28089e-05
-6.26874e-06
8.31615e-06
-8.85982e-06
1.67231e-05
-1.19605e-05
9.36454e-06
-5.60609e-06
1.88898e-05
-1.56323e-05
2.08716e-05
-4.20601e-06
1.24174e-05
-9.75891e-06
2.2383e-05
-1.78793e-05
2.23865e-05
-1.03446e-05
1.53196e-05
3.21136e-07
2.59423e-05
1.63721e-06
2.18865e-05
8.1179e-06
2.14566e-05
5.59767e-06
9.61714e-06
1.6072e-05
1.39513e-05
6.7401e-06
8.57873e-06
1.64307e-05
1.05185e-05
1.69273e-05
1.45703e-06
2.84494e-05
2.70894e-05
1.9203e-06
-1.2902e-05
1.89322e-06
-8.19743e-06
3.56744e-06
-7.57247e-06
9.8636e-06
-1.80582e-05
7.14654e-06
-3.55168e-06
7.91028e-06
-9.62356e-06
7.08479e-06
-1.1135e-05
1.4829e-05
-1.33503e-05
9.15532e-06
-9.95864e-06
1.65121e-05
-1.15628e-05
2.04924e-05
-1.37392e-05
1.26264e-05
-1.00133e-05
1.36364e-05
-1.13546e-05
2.52054e-05
-1.12479e-05
2.64897e-05
3.52985e-07
2.62132e-05
8.39434e-06
1.3438e-05
1.83728e-05
2.13689e-05
8.14115e-06
6.69422e-06
2.14148e-05
6.1645e-06
1.69605e-05
1.01636e-05
1.29281e-05
8.87615e-06
2.97369e-05
3.59655e-05
5.5812e-07
-1.34601e-05
2.38159e-06
-1.00209e-05
6.52037e-06
-1.17112e-05
3.11099e-06
-1.46488e-05
6.74189e-06
-7.18259e-06
9.43018e-06
-1.23118e-05
1.08166e-05
-1.25214e-05
1.38955e-05
-1.64292e-05
1.56585e-05
-1.17216e-05
1.71355e-05
-1.30398e-05
1.20562e-05
-8.65997e-06
1.14496e-05
-9.40667e-06
1.98824e-05
-1.97875e-05
1.41303e-05
-5.49577e-06
2.72135e-05
-1.27302e-05
2.51661e-05
1.04417e-05
2.70451e-05
1.64938e-05
1.34681e-05
2.17182e-05
1.65109e-05
1.83719e-05
7.41624e-06
2.60552e-05
6.30508e-06
1.40393e-05
1.15587e-05
2.44833e-05
4.75242e-05
-2.45314e-07
-1.32148e-05
-7.30738e-07
-9.53548e-06
1.59278e-06
-1.40348e-05
3.46672e-06
-1.65227e-05
7.41241e-06
-1.11283e-05
4.67455e-06
-9.57399e-06
9.85975e-06
-1.77066e-05
1.38107e-05
-2.03802e-05
1.65598e-05
-1.44707e-05
1.62886e-05
-1.27686e-05
1.02319e-05
-2.60329e-06
1.58473e-05
-1.5022e-05
7.31655e-06
-1.12568e-05
1.77376e-05
-1.59169e-05
1.25713e-05
-7.56387e-06
2.81459e-05
-5.13288e-06
2.93121e-05
1.53277e-05
1.73934e-05
3.36369e-05
2.6006e-05
9.75931e-06
1.59864e-05
3.60747e-05
1.6038e-05
1.39877e-05
1.93968e-05
2.11245e-05
6.69209e-05
-4.24148e-05
4.24148e-05
-9.15537e-05
4.91389e-05
-9.57003e-05
4.14664e-06
-8.18436e-05
-1.38567e-05
-6.22222e-05
-1.96214e-05
-5.47674e-05
-7.45481e-06
-5.34454e-05
-1.32192e-06
-5.32479e-05
-1.97525e-07
-5.42583e-05
1.01035e-06
-5.63135e-05
2.05526e-06
-5.32422e-05
-3.07135e-06
-4.96088e-05
-3.63334e-06
-4.79469e-05
-1.66194e-06
-4.42348e-05
-3.71207e-06
-2.4618e-05
-1.96168e-05
-2.27427e-05
-1.87537e-06
-2.93511e-05
6.60842e-06
-1.61102e-05
-1.32409e-05
-1.61102e-05
-3.5544e-05
7.79588e-05
-6.78634e-05
8.14584e-05
-6.91018e-05
5.38498e-06
-5.33005e-05
-2.9658e-05
-2.17625e-05
-5.11594e-05
-9.6134e-06
-1.96039e-05
-1.53857e-05
4.45037e-06
-2.04681e-05
4.8849e-06
-2.6373e-05
6.91518e-06
-3.17185e-05
7.40082e-06
-3.06062e-05
-4.18367e-06
-2.89167e-05
-5.32288e-06
-1.72119e-05
-1.33667e-05
-1.76606e-05
-3.26334e-06
-2.02123e-05
-1.70651e-05
-2.10094e-05
-1.07821e-06
-1.36977e-05
-7.03294e-07
-1.18681e-05
-1.50705e-05
-2.79783e-05
-2.91377e-05
0.000107096
-5.50882e-05
0.000107409
-5.66945e-05
6.99128e-06
-2.2955e-05
-6.33975e-05
-1.16941e-05
-6.24203e-05
1.74258e-05
-4.87238e-05
6.86774e-06
1.50084e-05
6.45794e-06
5.29469e-06
8.63801e-06
4.73512e-06
-6.3166e-06
2.23554e-05
-1.29348e-05
2.43449e-06
-1.24723e-05
-5.78533e-06
-1.8935e-05
-6.9041e-06
-1.30723e-05
-9.12602e-06
-2.45326e-05
-5.60472e-06
-1.41357e-05
-1.14752e-05
-8.72391e-06
-6.11506e-06
-2.21075e-06
-2.15837e-05
-3.01891e-05
-2.00148e-05
0.000127111
-3.21485e-05
0.000119543
-3.35433e-05
8.38605e-06
-3.31115e-05
-6.38293e-05
-6.52882e-06
-8.90029e-05
2.37267e-05
-7.89793e-05
2.5718e-05
1.30172e-05
1.6582e-05
1.44306e-05
1.55904e-05
5.72674e-06
1.21045e-05
2.58413e-05
4.74634e-06
9.79263e-06
3.15158e-06
-4.19056e-06
-6.34843e-07
-3.11768e-06
-5.21673e-06
-4.54413e-06
-3.99602e-06
-6.82543e-06
-3.52373e-06
-1.19475e-05
3.78034e-06
-1.34191e-05
3.21428e-06
-2.10176e-05
-2.69748e-05
-1.22789e-05
0.00013939
-1.79433e-05
0.000125207
-2.31288e-05
1.35716e-05
-1.77377e-05
-6.92205e-05
5.05752e-06
-0.000111798
1.83723e-05
-9.22941e-05
4.48562e-05
-1.34666e-05
4.31107e-05
1.61761e-05
2.41283e-05
2.47091e-05
3.96308e-05
1.03389e-05
2.8039e-05
2.13845e-05
1.03709e-05
1.34775e-05
5.23611e-06
2.01714e-06
1.00606e-06
-3.14079e-07
-1.2668e-06
-4.55257e-06
1.89566e-07
-1.34038e-05
8.26489e-06
-2.14945e-05
4.72593e-06
-1.74786e-05
-2.22488e-05
-4.95387e-06
0.000144344
-1.18947e-06
0.000121442
-9.22901e-06
2.16112e-05
-2.50303e-06
-7.59464e-05
1.87665e-05
-0.000133068
2.33792e-05
-9.69068e-05
5.90033e-05
-4.90908e-05
6.07927e-05
1.43868e-05
6.70441e-05
1.84577e-05
6.34787e-05
1.39043e-05
4.93665e-05
3.54966e-05
3.4509e-05
2.8335e-05
1.13576e-05
2.51685e-05
4.85557e-06
6.18799e-06
2.54874e-06
-2.24575e-06
1.93873e-06
-1.27938e-05
7.43244e-06
-2.69882e-05
3.79544e-06
-1.38417e-05
-1.84534e-05
5.92424e-06
0.00013842
1.11894e-05
0.000116177
1.33128e-05
1.94878e-05
9.09419e-06
-7.17279e-05
1.58027e-05
-0.000139776
2.35343e-05
-0.000104638
2.81433e-05
-5.36997e-05
5.63306e-05
-1.38005e-05
6.34215e-05
1.13667e-05
6.66327e-05
1.06931e-05
6.06887e-05
4.14406e-05
4.83008e-05
4.07229e-05
3.3307e-05
4.01623e-05
1.00304e-05
2.94646e-05
4.78964e-06
2.99499e-06
6.98589e-06
-1.49901e-05
1.07793e-05
-3.07816e-05
8.81313e-06
-1.18755e-05
-9.64027e-06
1.97828e-05
0.000118637
3.61914e-05
9.97686e-05
3.10214e-05
2.46578e-05
3.65918e-05
-7.72983e-05
2.12189e-05
-0.000124403
2.36123e-05
-0.000107032
2.71321e-05
-5.72196e-05
5.1368e-05
-3.80364e-05
5.75163e-05
5.21845e-06
3.40977e-05
3.41117e-05
2.89408e-05
4.65975e-05
4.52819e-05
2.43818e-05
3.70059e-05
4.84384e-05
2.76874e-05
3.8783e-05
2.05109e-05
1.01715e-05
1.70018e-05
-1.1481e-05
8.62254e-06
-2.24023e-05
1.38296e-05
-1.70825e-05
4.18931e-06
2.35946e-06
-1.55743e-05
2.16725e-06
-9.34327e-06
4.06591e-06
-1.59334e-05
3.55796e-06
-1.60148e-05
1.26008e-05
-2.01711e-05
2.17846e-05
-1.87578e-05
2.45106e-05
-2.04326e-05
1.94486e-05
-1.53182e-05
1.76497e-05
-1.26719e-05
1.02208e-05
-5.33963e-06
3.46275e-06
4.15473e-06
-8.5791e-07
-1.07013e-05
-3.02801e-06
-9.08666e-06
2.92496e-06
-2.18698e-05
2.13227e-05
-2.59616e-05
4.29084e-05
-2.67186e-05
5.67517e-05
1.48434e-06
7.15244e-05
1.88642e-05
3.60634e-05
4.52203e-05
5.68903e-05
1.52478e-05
3.68735e-05
3.40045e-05
4.03534e-05
1.76446e-05
3.44903e-05
7.27841e-05
-2.0444e-06
-1.35299e-05
8.44271e-06
-1.98304e-05
1.0944e-05
-1.84347e-05
2.02388e-05
-2.53096e-05
1.10971e-05
-1.10295e-05
1.33966e-05
-2.10573e-05
1.46805e-06
-8.50398e-06
-1.11888e-05
-2.66132e-06
-3.40264e-05
1.01657e-05
-5.0353e-05
1.0987e-05
-6.87938e-05
2.25955e-05
-7.6483e-05
-3.01217e-06
-6.97302e-05
-1.58394e-05
-5.49126e-05
-3.66874e-05
-3.29581e-05
-4.79161e-05
-1.68756e-05
-4.28011e-05
2.02058e-05
-3.55971e-05
3.33199e-05
5.75009e-06
6.73786e-05
1.11616e-05
4.84267e-05
3.41997e-05
8.03485e-05
2.08266e-06
8.88903e-05
9.10279e-06
3.68824e-05
8.64982e-05
9.40961e-06
-2.29395e-05
2.06428e-05
-3.10636e-05
2.58661e-05
-2.3658e-05
1.37217e-05
-1.31652e-05
1.26153e-05
-9.92299e-06
1.1254e-06
-9.56749e-06
-1.05529e-05
3.17435e-06
-3.42156e-05
2.10013e-05
-5.00305e-05
2.59807e-05
-7.18823e-05
3.28388e-05
-5.6216e-05
6.92922e-06
-8.61834e-05
2.69552e-05
-8.65488e-05
-1.5474e-05
-9.21616e-05
-3.10746e-05
-9.252e-05
-4.75577e-05
-8.48735e-05
-5.04476e-05
-5.83929e-05
-6.20777e-05
-1.84078e-05
-3.4235e-05
9.67331e-06
-1.69195e-05
4.07362e-05
3.1368e-06
5.51645e-05
-1.23456e-05
6.00208e-05
4.24647e-06
2.50261e-05
7.18771e-05
4.54449e-05
-6.83844e-05
4.57637e-05
-3.13823e-05
4.22507e-05
-2.0145e-05
3.42977e-05
-5.2122e-06
2.09337e-05
3.44101e-06
8.55324e-07
1.05109e-05
-1.49583e-05
1.8988e-05
-5.3256e-05
5.9299e-05
-5.62112e-05
2.89358e-05
-4.59554e-05
2.2583e-05
-5.42841e-05
1.52579e-05
-3.96343e-05
1.23055e-05
-6.59737e-05
1.08654e-05
-8.27646e-05
-1.42837e-05
-0.00011084
-1.9482e-05
-0.000125928
-3.53599e-05
-0.000117865
-7.01405e-05
-9.42832e-05
-5.7817e-05
-6.1884e-05
-4.93187e-05
-1.93298e-05
-3.94173e-05
2.13282e-05
-5.30036e-05
3.98178e-05
-1.42432e-05
-7.9265e-06
7.27704e-05
2.91522e-05
-9.75366e-05
7.80189e-05
-8.0249e-05
8.07318e-05
-2.28579e-05
7.05017e-05
5.01784e-06
5.0434e-05
2.35088e-05
1.47773e-05
4.61676e-05
-2.46959e-05
5.84612e-05
-3.0332e-05
6.49352e-05
-2.52251e-05
2.38289e-05
-2.52094e-05
2.25674e-05
-2.74677e-05
1.75162e-05
-4.80321e-05
3.28698e-05
-5.76682e-05
2.05015e-05
-8.47653e-05
1.28134e-05
-7.94706e-05
-2.47766e-05
-8.07867e-05
-3.40439e-05
-0.000130261
-2.06665e-05
-0.000131868
-5.62101e-05
-0.000140713
-4.04734e-05
-0.00012656
-5.35702e-05
-9.59055e-05
-8.36581e-05
-6.53502e-05
-4.47985e-05
-3.12755e-05
-4.20012e-05
3.05242e-05
-0.000128061
4.92826e-05
-9.90075e-05
7.05501e-05
-4.41254e-05
3.73002e-05
3.82678e-05
1.8512e-05
4.22969e-05
4.30226e-07
6.42493e-05
-1.85954e-05
7.74868e-05
-1.64043e-05
6.27441e-05
-3.06839e-05
3.81085e-05
-6.35221e-05
5.54056e-05
-8.36396e-05
3.76337e-05
-0.000110444
5.96741e-05
-0.000128404
3.84615e-05
-0.000133304
1.77138e-05
-0.000149354
-8.72692e-06
-0.000155783
-2.76154e-05
-0.000142526
-3.3923e-05
-0.000157488
-4.1248e-05
-0.000105929
-9.20323e-05
-8.31764e-05
-7.63231e-05
-0.000122886
-4.39481e-05
-0.000121046
-4.66394e-05
-4.66066e-05
-0.000105714
2.361e-05
-0.000151671
7.46052e-06
-8.2858e-05
3.12012e-05
-6.78661e-05
4.21552e-05
2.73138e-05
1.05145e-05
7.39375e-05
-1.60717e-05
9.08356e-05
-3.3143e-05
9.45581e-05
-4.18762e-05
7.14772e-05
-7.52097e-05
7.1442e-05
-0.000105328
8.55239e-05
-0.000122748
5.50542e-05
-0.000138644
7.55698e-05
-0.000133576
3.33931e-05
-0.000139973
2.41114e-05
-0.000142717
-5.98301e-06
-0.000138152
-3.21801e-05
-0.000138429
-3.36462e-05
-0.000130228
-4.94489e-05
-0.000139126
-8.31347e-05
-0.000147337
-6.8112e-05
-0.000126098
-6.51875e-05
-0.000104229
-6.85077e-05
-6.03526e-05
-9.04833e-05
-1.39617e-05
-0.000137709
1.72138e-05
-0.000114033
-3.83818e-06
-4.68141e-05
-2.15431e-05
4.50188e-05
-2.78839e-05
8.02783e-05
-4.19068e-05
0.000104859
-4.54779e-05
9.81292e-05
-6.06888e-05
8.66881e-05
-8.53363e-05
9.60895e-05
-9.4088e-05
9.42756e-05
-0.000120125
8.10908e-05
-0.000117703
7.31486e-05
-0.000114873
3.05622e-05
-0.0001042
1.34391e-05
-9.53641e-05
-1.48192e-05
-0.000101604
-2.594e-05
-5.45792e-05
-8.06711e-05
-3.76472e-05
-6.6381e-05
-6.93908e-05
-5.13911e-05
-6.99792e-05
-6.75237e-05
-8.56545e-05
-4.95121e-05
-8.02259e-05
-7.39363e-05
-6.51981e-05
-7.53805e-05
-2.90534e-05
-0.000108656
-5.69339e-05
-8.61529e-05
-6.94021e-05
-3.4346e-05
-7.25367e-05
4.81533e-05
-7.14875e-05
7.92291e-05
-6.52902e-05
9.86613e-05
-6.59919e-05
9.88309e-05
-7.3941e-05
9.46372e-05
-8.04799e-05
0.000102628
-8.50943e-05
9.889e-05
-8.54171e-05
8.14136e-05
-6.55043e-05
5.32359e-05
-5.59789e-05
2.10367e-05
-2.56312e-05
-1.69085e-05
1.13975e-05
-5.1848e-05
3.02447e-05
-4.47872e-05
-6.03504e-07
-4.98228e-05
-2.90386e-05
-3.79459e-05
-3.00541e-05
-5.03756e-05
-4.56671e-05
-5.19108e-05
-2.15308e-05
-7.36484e-05
-1.6497e-05
-7.897e-05
-4.59072e-05
-3.5788e-05
-5.14543e-05
-5.72014e-05
-6.28898e-05
-7.47174e-05
-8.87921e-05
-8.44367e-06
-9.52892e-05
5.46504e-05
-6.93571e-05
5.32969e-05
-6.58527e-05
9.51569e-05
-6.57278e-05
9.8706e-05
-7.0419e-05
9.93284e-05
-7.18125e-05
0.000104022
-4.09467e-05
6.80243e-05
-2.87711e-05
6.92379e-05
-2.45878e-06
2.69235e-05
3.00767e-05
-1.14988e-05
6.24039e-05
-4.92356e-05
7.89787e-05
-6.84229e-05
7.70635e-05
-4.2872e-05
6.23594e-05
-3.51187e-05
5.61135e-05
-3.16999e-05
3.46094e-05
-2.88715e-05
3.21941e-05
-4.94955e-05
4.26167e-06
-4.57161e-05
-2.09846e-05
-5.37237e-05
-5.76403e-05
-9.2515e-06
-1.69253e-05
-4.02761e-05
-4.84016e-05
-4.32411e-05
-4.55389e-05
-1.13064e-05
-4.75231e-05
5.66346e-05
-8.60228e-05
9.17966e-05
-7.295e-05
8.20842e-05
-6.69183e-05
9.26742e-05
-2.59157e-05
5.83259e-05
-1.88292e-05
9.69353e-05
-4.792e-05
9.7115e-05
-9.13569e-06
3.04536e-05
1.92085e-05
-1.42062e-06
5.71675e-05
-4.94578e-05
9.7221e-05
-8.92892e-05
7.52252e-05
-4.6427e-05
9.94048e-05
-6.70517e-05
8.24814e-05
-1.81953e-05
5.93394e-05
-8.55797e-06
5.93498e-05
-2.8882e-05
3.80995e-05
-2.82452e-05
4.50432e-05
-5.26598e-05
3.39531e-05
-4.26336e-05
-4.18701e-05
1.81829e-05
-2.3206e-05
-1.70701e-05
-7.61169e-05
9.66993e-06
-9.31268e-05
5.70348e-06
-8.69509e-05
5.04587e-05
-5.504e-05
5.98857e-05
-4.17146e-05
6.87588e-05
-3.90711e-05
9.00307e-05
-4.63673e-05
6.56221e-05
-3.542e-05
8.5988e-05
-1.9662e-05
8.13571e-05
5.9732e-06
4.81838e-06
2.47675e-05
-2.0215e-05
7.59809e-05
-0.000100671
0.000111002
-0.00012431
0.000171912
-0.000107337
0.000214036
-0.000109176
0.000228818
-3.29775e-05
0.000235978
-1.57175e-05
0.000211852
-4.75667e-06
0.000169032
1.45755e-05
7.99923e-05
3.63794e-05
4.33599e-05
-6.00129e-06
-3.68678e-05
3.83576e-05
-3.70545e-05
1.99844e-05
-5.09455e-05
2.35609e-05
-8.75369e-05
4.22948e-05
-8.28527e-05
4.57745e-05
-5.63615e-05
3.33945e-05
-6.77307e-05
8.0128e-05
-5.18639e-05
7.41639e-05
-1.70629e-05
3.0821e-05
-9.46579e-06
7.83909e-05
1.73326e-05
5.45587e-05
2.65927e-05
-4.44169e-06
7.94214e-05
-7.30437e-05
0.000120404
-0.000141654
0.000146088
-0.000149994
0.000173257
-0.000134506
0.000129311
-6.52296e-05
0.000156997
-6.06635e-05
0.000169116
-2.78365e-05
0.00014096
2.33986e-05
0.000121705
3.38313e-05
0.000121301
3.67833e-05
9.42849e-05
2.10147e-05
1.21062e-05
4.53108e-05
-2.78117e-05
4.77961e-05
-3.66699e-05
3.24191e-05
-4.64121e-05
5.20371e-05
-5.06895e-05
5.00519e-05
-8.05838e-05
6.32888e-05
-4.64287e-05
4.59729e-05
-2.48576e-05
5.25928e-05
-1.28203e-05
1.87837e-05
2.47113e-05
4.08593e-05
8.02841e-05
-1.0141e-06
0.000112545
-3.67029e-05
0.000148996
-0.000109495
0.000163554
-0.000156212
0.000164296
-0.000150736
0.000170871
-0.00014108
0.000218079
-0.000112438
0.000215967
-5.85517e-05
0.000185762
2.36908e-06
0.000171123
3.80369e-05
0.000161846
4.31083e-05
0.000165305
3.3325e-05
0.000126368
5.99514e-05
6.46184e-05
7.38558e-05
-1.69133e-05
6.47095e-05
-2.82226e-05
4.37284e-05
-3.29916e-05
5.6806e-05
-2.98819e-05
4.69422e-05
-2.74336e-05
6.08406e-05
-4.78803e-05
6.64196e-05
-5.75394e-06
1.04664e-05
1.1719e-05
1.3108e-06
6.52354e-05
-1.26572e-05
0.000101824
-3.76024e-05
0.00020618
-0.000141059
0.000185106
-8.84206e-05
0.000177112
-0.000148218
0.000171987
-0.000145611
0.000174875
-0.000143968
0.000195078
-0.000132641
0.000228386
-9.18599e-05
0.000256897
-2.61423e-05
0.000286812
8.1226e-06
0.000274422
5.54975e-05
0.00019626
0.000111488
0.000177391
7.88197e-05
5.04225e-05
0.000191587
-7.18843e-06
7.18979e-05
-1.55312e-05
5.20712e-05
-3.01918e-05
7.14666e-05
-2.912e-05
4.58705e-05
-1.81318e-05
4.98523e-05
4.23431e-06
4.40535e-05
2.83957e-05
-1.3695e-05
9.55239e-05
-6.58174e-05
0.00013507
-5.22037e-05
0.00018919
-9.1722e-05
0.000121905
-7.37743e-05
0.000204192
-0.000170708
0.00016515
-0.000109176
0.000166049
-0.000146511
0.000166798
-0.000144716
0.000110371
-7.62143e-05
0.000120518
-0.000102007
0.000187623
-9.32482e-05
0.000213638
-1.78914e-05
0.000228416
4.0719e-05
0.0002661
7.38037e-05
0.000278991
6.59285e-05
9.89269e-05
0.000230487
5.36855e-07
7.13611e-05
-4.29077e-06
5.68988e-05
-5.0689e-06
7.22448e-05
1.08623e-05
2.99393e-05
1.38861e-05
4.68286e-05
5.82936e-05
-3.53998e-07
0.000117262
-7.26638e-05
0.000140948
-8.95026e-05
0.000173658
-8.49146e-05
0.000170613
-8.86765e-05
0.000220184
-0.000123345
0.000193245
-0.000143769
0.000175909
-9.18399e-05
0.000166546
-0.000137148
0.00015482
-0.00013299
0.000193379
-0.000114774
0.000172554
-8.11815e-05
0.000154442
-7.51371e-05
0.000199433
-6.28818e-05
0.000210895
2.92573e-05
0.000194439
9.02593e-05
0.000136175
0.000124193
0.000125912
0.00010919
2.06392e-06
6.92971e-05
3.27362e-07
5.86354e-05
1.18426e-05
6.07295e-05
1.1575e-05
3.02069e-05
2.10273e-05
3.73763e-05
2.76e-05
-6.92665e-06
5.87369e-05
-0.000103801
6.52212e-05
-9.59869e-05
0.000141251
-0.000160944
0.000149431
-9.68563e-05
9.68469e-05
-7.07612e-05
8.11916e-05
-0.000128114
0.000130951
-0.000141599
0.000124329
-0.000130526
0.000125357
-0.000134017
0.000127567
-0.000116984
0.000112429
-6.60435e-05
0.000129118
-9.18257e-05
0.000109305
-4.30694e-05
0.000140523
-1.96084e-06
0.000155679
7.51035e-05
0.000197833
8.20391e-05
0.000135698
0.000188047
2.34035e-06
6.69568e-05
5.38298e-06
5.55927e-05
1.92785e-05
4.68339e-05
1.67496e-05
3.27359e-05
3.41984e-05
1.99275e-05
5.34501e-05
-2.61783e-05
2.74455e-05
-7.77961e-05
3.47975e-05
-0.000103339
7.35318e-05
-0.000199678
0.000125852
-0.000149177
0.000157064
-0.000101973
0.000133824
-0.000104873
0.000115961
-0.000123737
0.000114862
-0.000129426
6.0403e-05
-7.95581e-05
5.50365e-05
-0.000111618
9.54634e-05
-0.00010647
9.45777e-05
-9.094e-05
0.000113865
-6.23568e-05
0.000122523
-1.06191e-05
0.000136004
6.16225e-05
0.000140133
7.79108e-05
0.000142368
0.000133463
7.98361e-07
6.61584e-05
3.47152e-07
5.60439e-05
2.74171e-06
4.44394e-05
4.28229e-06
3.11953e-05
2.51553e-06
2.16943e-05
-1.05906e-05
-1.30722e-05
2.62452e-05
-0.000114632
2.94917e-05
-0.000106585
6.63865e-05
-0.000236573
3.21774e-05
-0.000114967
7.6566e-05
-0.000146362
6.82228e-05
-9.65297e-05
8.43442e-05
-0.000139858
8.78008e-05
-0.000132883
0.000112284
-0.000104041
0.000103295
-0.000102629
9.41256e-05
-9.73006e-05
8.97436e-05
-8.6558e-05
9.78575e-05
-7.04707e-05
9.58191e-05
-8.58064e-06
0.000105499
5.19421e-05
0.000113898
6.95119e-05
0.000144474
0.000111793
-3.49094e-06
6.96494e-05
-2.81173e-06
5.53647e-05
1.32352e-05
2.83925e-05
4.59443e-06
3.9836e-05
-4.40829e-06
3.0697e-05
-1.68826e-05
-5.97803e-07
-2.71757e-05
-0.000104339
1.67754e-05
-0.000150536
1.77737e-05
-0.000237572
2.46173e-05
-0.000121811
4.2854e-05
-0.000164599
9.34978e-05
-0.000147174
0.000100388
-0.000146748
0.000109739
-0.000142234
0.000109064
-0.000103367
0.000101729
-9.52937e-05
9.57218e-05
-9.12937e-05
9.2113e-05
-8.29492e-05
5.482e-05
-3.31777e-05
7.15676e-05
-2.53283e-05
6.71081e-05
5.64015e-05
3.0224e-05
0.000106396
0.000102186
7.25117e-05
-1.55548e-06
7.12049e-05
5.87821e-06
4.7931e-05
7.50924e-06
2.67615e-05
5.91797e-06
4.14273e-05
3.22248e-06
3.33925e-05
7.12448e-06
-4.49979e-06
2.694e-06
-9.99084e-05
1.02702e-05
-0.000158113
8.20331e-06
-0.000235505
5.85694e-05
-0.000172177
4.12942e-05
-0.000147324
5.08935e-05
-0.000156773
6.3579e-05
-0.000159434
7.94735e-05
-0.000158128
8.69061e-05
-0.000110799
9.15972e-05
-9.99848e-05
9.61815e-05
-9.5878e-05
9.4239e-05
-8.10066e-05
8.67279e-05
-2.56666e-05
6.56004e-05
-4.20075e-06
6.41144e-05
5.78876e-05
8.2888e-05
8.76223e-05
0.000114125
7.09493e-05
1.15994e-06
7.00449e-05
1.04164e-05
3.86746e-05
1.48817e-05
2.22962e-05
2.47001e-05
3.16089e-05
4.55001e-05
1.25926e-05
7.33305e-05
-3.23302e-05
3.17861e-05
-5.83639e-05
3.99981e-05
-0.000166325
1.94347e-05
-0.000214941
2.67949e-05
-0.000179537
2.1188e-05
-0.000141717
3.6694e-05
-0.000172279
4.54584e-05
-0.000168198
6.95249e-05
-0.000182195
4.64725e-05
-8.77468e-05
2.11873e-05
-7.46997e-05
3.42542e-05
-0.000108945
3.55618e-05
-8.23143e-05
5.63289e-05
-4.64337e-05
3.56541e-05
1.6474e-05
2.9071e-05
6.44707e-05
2.84843e-05
8.82089e-05
0.000144389
-1.78013e-06
2.75173e-06
6.72932e-05
2.2165e-05
1.92613e-05
2.77469e-05
1.67143e-05
3.61182e-05
2.32375e-05
6.04388e-05
-1.1728e-05
7.74958e-05
-4.93872e-05
0.000103491
-8.43595e-05
3.61546e-05
-9.8988e-05
2.19084e-05
-0.000200695
2.22833e-05
-0.000179912
2.11623e-05
-0.000140596
3.10787e-05
-0.000182195
4.53489e-05
-0.000182469
-8.07806e-06
-0.000128768
-4.8163e-06
-9.10086e-05
2.65656e-05
-0.000106082
2.25831e-05
-0.000104962
1.86659e-05
-7.8397e-05
8.23628e-06
-3.60041e-05
9.926e-06
1.47842e-05
-5.2987e-06
7.96954e-05
-2.91657e-05
0.000112076
0.000118255
-3.03117e-06
1.10442e-05
5.6249e-05
1.64795e-05
1.3826e-05
4.20447e-05
-8.85093e-06
6.6661e-05
-1.37874e-06
8.56548e-05
-3.07218e-05
9.94807e-05
-6.32131e-05
0.00010121
-8.60892e-05
9.09155e-05
-8.86931e-05
6.66878e-05
-0.000176467
3.551e-05
-0.000148735
1.35383e-05
-0.000118624
9.7652e-06
-0.000178422
3.79742e-06
-0.000176501
5.30195e-07
-0.0001255
1.74138e-05
-0.000107892
-4.22891e-06
-8.44388e-05
-2.3327e-05
-8.58642e-05
-3.11942e-05
-7.05298e-05
-5.96396e-05
-7.5587e-06
-6.26064e-05
1.7751e-05
-4.88034e-05
6.58924e-05
-1.53994e-05
7.86718e-05
0.000107962
-5.10688e-06
1.08583e-05
4.53907e-05
1.93218e-05
5.36252e-06
3.54628e-05
-2.4992e-05
6.7006e-05
-3.29219e-05
9.15489e-05
-5.52648e-05
0.000108133
-7.97973e-05
8.78096e-05
-6.57657e-05
0.000110057
-0.000110941
2.95111e-05
-9.59211e-05
1.33695e-05
-0.000132593
1.53348e-06
-0.000106788
-1.07295e-05
-0.000166159
-3.0401e-05
-0.000156829
1.23523e-05
-0.000168254
8.28012e-06
-0.00010382
-3.60451e-05
-4.01136e-05
-5.50472e-05
-6.68621e-05
-8.85692e-05
-3.70078e-05
-5.71043e-05
-3.90236e-05
-7.46096e-05
3.52563e-05
-4.51021e-05
3.63848e-05
-9.62313e-06
4.31928e-05
9.75771e-05
7.6207e-07
1.9313e-05
2.60777e-05
2.73774e-05
-2.70185e-06
2.05794e-05
-1.8194e-05
5.56356e-05
-6.79781e-05
4.49387e-05
-4.45678e-05
5.82393e-05
-9.3098e-05
0.000104205
-0.000111731
7.31347e-05
-7.98709e-05
5.66458e-05
-7.94323e-05
2.78413e-05
-0.000103788
-8.6996e-06
-7.02468e-05
-3.27701e-05
-0.000142089
-3.40662e-05
-0.000155533
-2.34404e-05
-0.00017888
-3.59555e-05
-9.1305e-05
-1.92105e-05
-5.68585e-05
-3.5476e-05
-5.05966e-05
-3.69519e-05
-3.55319e-05
-5.94964e-05
-1.64792e-05
-4.87701e-05
2.453e-05
-3.05597e-05
1.81745e-05
-1.9142e-05
3.17751e-05
7.83206e-05
1.14599e-07
3.01134e-05
-4.0357e-06
3.68712e-05
-9.45959e-06
3.85206e-05
-1.98434e-05
1.99606e-05
-4.94181e-05
7.12716e-05
-9.58789e-05
5.63562e-05
-7.81826e-05
6.20549e-05
-0.00011743
5.87661e-05
-7.65821e-05
4.93271e-05
-6.99932e-05
-2.1785e-05
-3.26763e-05
-5.72025e-05
-3.48293e-05
-5.5365e-05
-0.000143926
-0.000100122
-0.000110776
-7.12542e-05
-0.000207747
-4.08403e-05
-0.000121719
-3.90955e-05
-5.86033e-05
-1.8145e-05
-7.15472e-05
-1.03825e-05
-4.32944e-05
-2.27299e-05
-4.13179e-06
-1.17131e-05
1.35132e-05
-1.32917e-05
1.9753e-05
-2.21528e-05
4.06361e-05
6.46856e-05
-8.51786e-06
2.11346e-05
-2.51703e-05
1.84163e-05
-6.74133e-06
1.8947e-05
-2.03741e-05
4.21067e-05
-7.25779e-05
3.11575e-05
-8.49297e-05
3.75784e-05
-8.46035e-05
3.27842e-05
-0.000112635
-2.32675e-06
-4.14712e-05
-5.64901e-05
-1.58299e-05
-8.26885e-05
-6.47789e-06
-8.08227e-05
-3.6695e-05
-8.60498e-05
-0.000138699
-9.62144e-05
-0.000100612
-9.14479e-05
-0.000212514
-8.15961e-06
-0.000205007
-6.95779e-06
-5.98051e-05
-1.21499e-05
-6.6355e-05
-9.73511e-06
-4.57092e-05
-1.45124e-05
6.45541e-07
-1.01645e-05
9.16534e-06
-1.19793e-05
2.15678e-05
-3.43262e-06
3.20894e-05
5.46973e-05
6.55567e-06
1.61317e-05
-4.1302e-05
1.29545e-05
-3.56418e-06
1.61015e-05
-2.35211e-05
1.97783e-05
-7.62548e-05
6.07151e-05
-0.000125866
5.27574e-05
-7.66457e-05
-3.39554e-07
-5.95384e-05
-2.77226e-05
-1.40881e-05
-7.77985e-05
3.42461e-05
-9.04769e-05
6.20045e-06
-7.74994e-05
-4.96725e-05
-7.4226e-05
-0.000141972
-7.2244e-05
-0.000102594
-6.946e-05
-0.000215298
-5.28855e-05
-0.000221582
-2.31106e-05
-8.958e-05
-3.96415e-06
-8.55015e-05
-2.74353e-06
-4.69298e-05
-3.96627e-06
1.86829e-06
-4.10897e-06
9.30803e-06
-7.65797e-06
2.51168e-05
-9.22413e-06
3.36555e-05
3.2757e-05
1.27162e-05
-4.00492e-06
-3.7297e-05
-5.22529e-07
-7.04657e-06
8.78335e-06
-3.28269e-05
3.23483e-05
-9.98197e-05
2.43069e-05
-0.000117825
1.99008e-05
-7.22395e-05
1.63565e-05
-5.59942e-05
-1.02884e-05
1.25568e-05
-3.97926e-05
6.37503e-05
-4.311e-05
9.51794e-06
-1.50714e-05
-7.77112e-05
-5.17694e-05
-0.000105274
-3.65565e-05
-0.000117807
-3.34752e-05
-0.000218379
-2.22252e-05
-0.000232832
-7.53481e-06
-0.00010427
3.69966e-06
-9.6736e-05
-4.13679e-06
-3.90934e-05
-1.01975e-05
7.92904e-06
-7.70244e-06
6.81293e-06
2.75579e-06
1.46586e-05
9.99974e-06
2.64116e-05
3.33016e-05
9.45514e-06
-5.45456e-07
-3.67516e-05
8.10149e-06
-1.56935e-05
1.97228e-05
-4.44482e-05
6.69817e-06
-8.67951e-05
3.16495e-05
-0.000142776
3.75361e-05
-7.81262e-05
2.60739e-05
-4.4532e-05
3.60504e-06
3.50257e-05
-1.07306e-05
7.80859e-05
-1.67914e-05
1.55788e-05
-2.29398e-05
-7.15628e-05
9.82102e-06
-0.000138035
1.32346e-05
-0.00012122
7.58192e-06
-0.000212726
-9.42357e-06
-0.000215826
2.57567e-05
-0.000139451
1.45192e-05
-8.54984e-05
1.01606e-07
-2.46757e-05
-2.32671e-07
8.26332e-06
-4.11921e-06
1.06995e-05
-3.1971e-07
1.08591e-05
4.2842e-06
2.18077e-05
1.99075e-05
1.76782e-05
-4.27642e-06
-3.24752e-05
8.82521e-06
-2.87951e-05
2.5656e-05
-6.1279e-05
3.21674e-05
-9.33065e-05
-5.51103e-06
-0.000105098
-5.45885e-06
-7.81783e-05
-2.5431e-06
-4.74477e-05
-1.43974e-05
4.688e-05
1.90285e-05
4.466e-05
3.18457e-05
2.7616e-06
1.12767e-05
-5.09938e-05
9.18879e-06
-0.000135947
5.81992e-05
-0.000170231
2.62757e-05
-0.000180803
8.49581e-06
-0.000198046
7.18771e-06
-0.000138143
-2.55673e-05
-5.27434e-05
-1.777e-05
-3.2473e-05
-9.99423e-06
4.87556e-07
-5.50768e-06
6.21292e-06
-1.69869e-06
7.05007e-06
2.11259e-06
1.79964e-05
8.68314e-06
1.3337e-05
-5.52329e-06
-2.69519e-05
1.25146e-05
-4.68331e-05
2.50032e-05
-7.37676e-05
2.31946e-05
-9.14979e-05
1.21671e-05
-9.40704e-05
9.48078e-07
-6.69593e-05
-8.01165e-06
-3.8488e-05
-2.0404e-06
4.09088e-05
1.06803e-05
3.19394e-05
3.10376e-05
-1.75958e-05
4.81168e-05
-6.80731e-05
5.87521e-05
-0.000146583
4.50568e-05
-0.000156535
4.15824e-05
-0.000177328
1.87983e-05
-0.000175262
-7.37838e-07
-0.000118606
6.99527e-06
-6.04765e-05
-1.02673e-05
-1.52104e-05
-1.04202e-05
6.40436e-07
-6.45247e-06
2.24519e-06
-5.19517e-06
5.79277e-06
6.45294e-06
6.34827e-06
4.69693e-06
1.04391e-05
-7.67111e-06
-1.92808e-05
7.48249e-06
-6.19867e-05
9.85979e-06
-7.61449e-05
6.18486e-06
-8.7823e-05
-1.67532e-05
-7.11324e-05
-1.48352e-05
-6.88773e-05
-2.95934e-05
-2.37297e-05
-7.5307e-06
1.8846e-05
2.46395e-05
-2.30849e-07
4.37943e-05
-3.67506e-05
6.56924e-05
-8.99712e-05
7.44453e-05
-0.000155335
8.68035e-05
-0.000168894
2.30759e-05
-0.000113601
8.59977e-06
-0.000160786
-1.77911e-05
-9.22155e-05
-3.00918e-05
-4.81757e-05
-3.56371e-05
-9.66509e-06
-1.88906e-05
-1.61061e-05
-1.70467e-05
4.01288e-07
-7.69228e-06
-3.56166e-06
1.76749e-06
-3.1115e-06
-5.29015e-06
1.17546e-05
-5.12651e-06
-1.41543e-05
2.89054e-06
-7.00037e-05
2.72853e-06
-7.59829e-05
-1.23059e-05
-7.27885e-05
-3.1032e-05
-5.24063e-05
-4.27813e-05
-5.7128e-05
-4.24548e-05
-2.40562e-05
-1.41783e-05
-9.43053e-06
4.38653e-05
-5.82744e-05
6.32345e-05
-5.61198e-05
4.71395e-05
-7.38762e-05
3.60159e-05
-0.000144212
3.02116e-05
-0.000163089
5.11321e-05
-0.000134521
-1.43612e-05
-9.52927e-05
-2.90751e-05
-7.75016e-05
-3.67569e-05
-4.0494e-05
-2.22988e-05
-2.41231e-05
-2.59398e-05
-1.24651e-05
-1.24581e-05
-1.30804e-05
-7.4908e-06
-8.52899e-06
6.03691e-06
-1.66392e-05
-7.42127e-06
8.16803e-06
-5.67871e-06
-8.47554e-06
-2.80945e-06
-7.2873e-05
-1.01506e-05
-6.86418e-05
-3.37462e-05
-4.91929e-05
-4.87415e-05
-3.74109e-05
-6.64317e-05
-3.94379e-05
-2.92821e-05
-6.12058e-05
-6.7526e-06
-3.19601e-05
1.40347e-05
-7.90617e-05
5.81422e-05
-0.000100227
6.75242e-05
-8.32582e-05
6.26728e-05
-0.00013936
2.78649e-06
-0.000103203
-2.18092e-05
-0.000109926
-4.69811e-05
-7.01208e-05
-5.1514e-05
-7.29687e-05
-4.9068e-05
-4.294e-05
-3.50149e-05
-3.81761e-05
-1.26245e-05
-3.48555e-05
-1.18237e-05
-1.38811e-05