/*--------------------------------*- C++ -*----------------------------------*\
| =========                 |                                                 |
| \\      /  F ield         | foam-extend: Open Source CFD                    |
|  \\    /   O peration     | Version:     4.1                                |
|   \\  /    A nd           | Web:         http://www.foam-extend.org         |
|    \\/     M anipulation  |                                                 |
\*---------------------------------------------------------------------------*/
FoamFile
{
    version     2.0;
    format      ascii;
    class       volScalarField;
    location    "1";
    object      psi;
}
// * * * * * * * * * * * * * * * * * * * * * * * * * * * * * * * * * * * * * //

dimensions      [1 -1 -2 0 0 0 0];

internalField   nonuniform List<scalar> 
2268
(
-0.0913272
-0.14803
-0.241595
-0.285203
-0.274383
-0.24641
-0.209722
-0.190131
-0.186228
-0.176765
-0.15065
-0.105209
0.00311494
0.0969173
0.144355
0.194126
0.1768
0.123657
0.0928598
0.116746
0.13176
0.121686
0.111101
-0.133227
-0.188603
-0.281022
-0.320915
-0.305001
-0.273598
-0.226673
-0.200358
-0.192464
-0.170182
-0.131767
-0.0712926
0.0794347
0.153443
0.194095
0.239536
0.17673
0.0843503
0.0682825
0.104019
0.134646
0.126496
0.114535
-0.257217
-0.314684
-0.397095
-0.434249
-0.396116
-0.356445
-0.281611
-0.240773
-0.211761
-0.166521
-0.127109
-0.0778922
0.0862052
0.0570026
0.166493
0.191146
0.0232904
-0.126058
-0.0298477
0.0699625
0.126568
0.139395
0.131601
-0.4344
-0.489317
-0.560719
-0.5996
-0.514316
-0.455391
-0.344823
-0.297759
-0.239813
-0.160606
-0.148358
-0.108259
-0.0744887
-0.217496
0.0686041
-0.0192463
-0.293643
-0.401706
-0.146214
0.0333996
0.130088
0.173009
0.174377
-0.655619
-0.697639
-0.761991
-0.793975
-0.656219
-0.559376
-0.442223
-0.370236
-0.307186
-0.179878
-0.20309
-0.276906
-0.448599
-0.715364
-0.400168
-0.6368
-0.810827
-0.676823
-0.348544
0.0277321
0.142655
0.237156
0.266591
-0.90812
-0.929859
-0.989445
-1.00733
-0.806365
-0.668054
-0.56937
-0.489067
-0.405059
-0.331511
-0.337707
-0.557506
-1.26224
-1.82078
-1.63524
-1.58864
-1.36659
-1.06156
-0.59259
0.0363189
0.094675
0.311884
0.418749
-1.1735
-1.17524
-1.23407
-1.21545
-0.950062
-0.81242
-0.732079
-0.68996
-0.56728
-0.604756
-0.556643
-1.06619
-2.24803
-2.95478
-3.25335
-2.70604
-2.084
-1.48137
-0.917243
-0.106933
-0.102747
0.312705
0.687672
-1.43474
-1.41783
-1.48543
-1.43776
-1.16665
-1.01828
-0.977256
-1.01647
-0.97902
-1.08653
-0.791274
-1.94717
-2.9647
-3.70236
-3.69827
-3.38448
-2.81314
-1.65683
-1.83391
-0.542812
-0.668604
-0.0886453
0.943668
1.32531
1.37942
1.43965
1.49181
1.85881
2.24321
1.85386
1.6993
1.67509
1.1663
0.927282
0.628215
0.151325
-0.254929
-0.545072
-0.546139
-0.101055
0.260819
0.678726
1.34181
1.37472
1.20378
1.1828
1.35026
1.56474
1.54547
1.26459
1.31799
1.30449
1.1125
1.03069
0.725955
0.405284
0.0295522
-0.435831
-0.306498
-0.0961516
0.225672
1.35172
1.33582
1.1235
1.39847
1.27743
1.07173
1.47938
1.08211
0.744328
1.18338
1.00229
1.02874
1.07171
1.01379
0.670869
0.0138911
-0.41785
-0.291134
-0.173077
1.39592
1.30024
1.23822
1.61945
1.52792
1.18943
1.99594
1.57209
1.00869
1.27911
1.08541
0.993664
1.16474
1.24418
1.12358
0.61286
-0.171348
-0.195878
-0.152343
1.56091
1.37374
1.43885
1.82865
1.89854
1.65613
2.28149
2.28116
1.89814
1.61433
1.47373
1.3092
1.33777
1.33799
1.20654
1.0741
0.206723
-0.0117719
-0.147405
1.76151
1.50107
1.6695
1.80883
2.07609
2.03944
2.2049
2.60528
2.58054
2.18986
2.06179
1.9171
1.67885
1.47545
1.1423
1.1769
0.592066
0.0211482
-0.131506
0.933729
1.53723
1.77156
1.71866
2.15673
2.15587
2.20089
2.53199
2.73482
2.56762
2.57801
2.43817
2.20699
1.76037
1.1088
0.896928
0.658179
0.0452247
-0.0533825
-1.26075
0.927069
1.53714
1.77796
2.53215
2.32037
2.45433
2.21938
2.59772
2.76501
2.8445
2.66075
2.52129
2.10333
1.06803
0.342573
0.40135
0.0708795
-0.0832551
-1.80365
-1.75687
-1.85882
-1.85246
-1.62556
-1.48409
-1.43405
-1.61161
-2.10922
-2.13849
-1.33947
-2.46822
-1.61817
-1.16935
-1.07519
-1.591
-2.30539
-2.62337
-3.00615
-2.15077
-1.91663
-1.47888
0.322927
-1.70034
-1.843
-2.02731
-2.33103
-1.97757
-1.79646
-1.37914
-1.82196
-2.0846
-1.54821
-0.868286
-0.295168
0.49635
0.602157
0.424392
0.161085
-0.353826
-1.30646
-1.68583
-2.81093
-2.95189
-3.90317
-3.52267
-0.778374
-1.2561
-1.49258
-1.96488
-1.90647
-1.75209
-1.25969
-0.982566
0.292818
1.17794
1.72783
1.94475
1.77899
1.6742
1.16047
0.796099
0.561035
0.238034
-0.203783
-0.772796
-1.35246
-2.22016
-2.99228
-0.660408
-0.300577
-0.141964
-0.10447
-0.461893
-0.484974
-0.4953
1.11871
1.98684
2.37255
2.26836
2.47656
1.32589
1.57877
1.69763
1.53288
1.17092
1.34616
0.805979
0.307547
-0.452426
-1.02318
-2.10951
1.2303
0.883893
0.61436
0.516657
1.08334
1.59394
1.45834
2.22228
2.40477
2.72904
2.31432
2.17939
2.16186
2.38284
2.24892
2.01904
1.95136
1.66872
2.08703
1.68541
1.01338
1.15346
0.489982
2.71206
2.52848
2.2025
1.78392
2.04286
2.88811
2.25269
2.52708
2.44754
2.52644
2.63417
2.94151
3.09412
3.09062
2.76449
2.70531
2.64946
2.12486
1.8819
2.16996
2.09307
1.80164
1.24032
2.94039
2.88707
2.61045
2.46863
2.32497
3.19791
2.53821
2.57369
2.68463
2.82816
2.88611
3.10816
2.82861
2.54523
2.22626
2.05347
2.01291
1.91412
1.63399
2.07626
1.87667
1.35825
1.15161
2.94156
2.77971
2.66927
2.64448
2.90984
3.07528
2.62632
2.75928
2.90775
2.90049
2.81621
2.67674
1.99158
1.73037
1.40187
1.19402
1.08399
1.18664
1.06802
0.963892
1.01938
0.821283
0.939133
2.94918
2.73494
2.69413
2.70707
2.89779
2.85027
2.74328
2.95025
2.9463
2.76383
2.48253
2.07883
1.58238
1.27264
0.957974
0.886514
0.643845
0.770105
0.714213
0.511852
0.461221
0.455632
0.596351
2.92133
2.77389
2.73646
2.70086
2.80391
2.80823
2.84547
2.96285
2.79685
2.73061
2.62142
2.0401
1.50559
1.0344
0.664891
0.565229
0.468744
0.476749
0.442255
0.321613
0.225442
0.257093
0.274882
2.99603
2.86285
2.85375
2.74086
2.83933
2.87335
2.93503
3.04879
3.03664
2.66834
2.19665
1.51719
0.850545
0.611218
0.50249
0.377346
0.335297
0.290472
0.238827
0.174532
0.114876
0.134881
0.100484
2.92389
2.81606
2.87411
2.87456
2.88274
2.9239
3.05903
2.97061
2.93017
2.28295
1.2924
0.777971
0.660387
0.593051
0.49799
0.404853
0.32986
0.273294
0.221801
0.166299
0.0856978
0.0645308
0.039832
2.89211
2.82172
2.88717
2.932
2.94908
3.0436
3.08679
2.758
2.8477
1.9866
1.07786
0.950494
0.940805
0.777276
0.580513
0.40955
0.287011
0.214573
0.142758
0.0885406
0.0452762
0.0335847
0.0233175
2.92044
2.75191
2.87581
2.92775
2.90943
3.0956
2.94107
2.34446
2.74321
2.2025
1.67394
1.32251
1.08326
0.84409
0.606883
0.418056
0.330214
0.273043
0.186645
0.103497
0.0472962
0.0207793
0.0123451
2.99809
2.63669
2.73302
2.72826
2.8152
2.53918
2.06465
1.58189
1.95384
1.75505
1.29211
1.21313
0.967055
0.773998
0.582005
0.391486
0.227126
0.209868
0.190625
0.154252
0.108562
0.0474349
0.0207416
3.10623
2.58137
2.383
2.20127
2.25863
2.0996
1.34452
1.0978
1.13711
1.1116
0.995034
0.74033
0.692428
0.579438
0.491967
0.362062
0.192024
0.119203
0.108757
0.106815
0.0871905
0.0569079
0.0311486
3.16261
2.62134
2.24249
1.96428
1.97782
1.82558
1.45439
1.28607
1.07948
0.899588
0.812637
0.531029
0.498614
0.372649
0.338533
0.333208
0.285738
0.160152
0.0787554
0.0723201
0.0594603
0.0357688
0.014355
3.18083
2.68469
2.23159
1.89768
1.81935
1.45755
1.25197
1.09081
0.771728
0.612866
0.473041
0.246532
0.184021
0.177992
0.220787
0.229495
0.202904
0.117279
0.0494716
0.0282557
0.0261811
0.0166908
0.00908352
3.17726
2.73034
2.28875
1.88481
1.65014
1.36667
1.28034
1.04164
0.736733
0.405312
0.279239
0.172853
0.0986962
0.111358
0.165396
0.186868
0.160503
0.0994857
0.0431611
0.0187932
0.0116724
0.00551436
0.00309577
3.19194
2.73291
2.17816
1.69382
1.37316
1.21998
1.46988
1.15935
0.900408
0.337085
0.0917024
0.0714217
0.0635679
0.077103
0.125027
0.170362
0.167001
0.143342
0.083144
0.0284609
0.0104202
0.00421156
0.00213513
3.14939
2.61592
2.21914
1.76682
1.366
1.3434
1.78655
1.41531
1.19542
0.233499
0.0875235
0.0472773
0.0596761
0.0673388
0.100003
0.151773
0.161031
0.153
0.105791
0.0380303
0.0103884
0.002971
0.000704647
3.09703
2.64836
2.33308
1.75698
1.37568
1.55425
2.18052
2.16641
1.56763
0.391125
0.113416
0.0210073
0.0507617
0.0678931
0.104395
0.143451
0.144977
0.141811
0.122324
0.0714407
0.0241167
0.00739906
0.00310777
3.04608
2.69886
2.58331
1.93249
1.55269
1.84179
2.28482
2.45485
1.75783
0.428385
0.00817054
-0.00692944
0.0349459
0.0623864
0.106319
0.117259
0.091304
0.0799766
0.0671495
0.0402949
0.0148422
0.00462605
0.00172008
2.97868
2.8381
2.88187
2.35979
2.06535
2.37842
2.48971
2.54418
1.77229
0.451414
-0.00712611
-0.00975476
0.0224216
0.038677
0.0593196
0.0460003
0.0289921
0.0355438
0.0398957
0.0277334
0.0104037
0.001959
0.000651485
2.96868
2.85461
2.84091
2.74532
2.63963
2.6189
2.63518
2.64679
1.99491
0.552952
-0.0121551
-0.0103639
0.0202399
0.0206047
0.0153066
0.00861109
0.00251941
0.00607247
0.0125416
0.00800383
0.00357862
0.000797285
0.000242703
3.01327
2.81767
2.52207
2.6326
2.6813
2.69829
2.68949
2.26808
1.15727
0.0629596
-0.0494223
0.00323547
0.0213547
0.0178417
0.00686708
0.000953933
-0.00132785
-0.00026401
0.000995349
0.00198104
0.000651274
4.64278e-05
5.08392e-05
3.0459
2.74104
2.29818
2.27603
2.44555
2.26511
1.82435
1.3264
0.638277
0.124754
-1.8174e-05
0.0221314
0.0252359
0.0188268
0.00347846
-0.0004048
-0.00122515
-0.00111678
-0.000557202
0.000263157
-0.000180437
-0.000134511
-1.91471e-05
2.84801
2.58662
2.24314
1.99675
1.69941
1.52561
0.780999
0.592897
0.24775
0.0601146
0.00620222
0.0321134
0.0312618
0.0283981
0.0119034
0.00146084
0.00107991
0.000223463
-0.000213201
-0.000106258
-0.000103419
-4.27007e-05
-1.11388e-05
2.32539
2.23111
1.99789
1.70469
1.09963
0.811239
0.277102
0.136184
-0.0073324
0.000345207
0.0266328
0.0374378
0.034164
0.0328577
0.0259675
0.0092336
0.00530036
0.00212201
0.000463736
0.000110782
2.41541e-05
8.56043e-07
-2.11049e-06
2.06063
2.1302
1.92635
1.44756
0.839771
0.561571
0.183781
0.00373864
0.00353294
0.0253129
0.0380786
0.0379232
0.0350699
0.0338462
0.0301961
0.0141704
0.00888946
0.00366082
0.00106504
0.000378077
0.000119119
2.77391e-05
5.59054e-06
1.97848
2.03394
1.73627
1.2266
0.634202
0.346761
0.14557
0.0162547
0.0151269
0.0351524
0.038004
0.0324819
0.0335284
0.034618
0.0324234
0.0223467
0.0125411
0.00473124
0.00131567
0.0004269
0.000147755
4.83612e-05
1.54959e-05
1.93274
1.94741
1.57848
0.92266
0.417311
0.307898
0.177891
0.0555699
0.01916
0.0325232
0.0314022
0.0260329
0.0286936
0.0325252
0.0328729
0.0246956
0.0143967
0.00544295
0.00161034
0.000476159
0.00014843
5.11568e-05
1.87413e-05
1.86834
1.77458
1.30288
0.716408
0.27963
0.121988
0.0609397
0.0342411
0.0207555
0.0273559
0.0264062
0.0236599
0.0273456
0.0315608
0.0307112
0.0239892
0.0111522
0.00333418
0.000816715
0.000198647
6.15152e-05
3.00822e-05
1.11183e-05
1.7828
1.50184
0.954588
0.421374
0.165898
0.0834224
0.0459096
0.027763
0.016864
0.0182318
0.0191566
0.0227264
0.0278317
0.0311157
0.0274556
0.0191036
0.0113719
0.00564852
0.00138689
0.000204188
1.18861e-05
-4.46165e-07
-2.75665e-06
1.66926
1.16595
0.628008
0.226647
0.070838
0.0314613
0.0222405
0.0151809
0.0101645
0.011887
0.0160561
0.0259326
0.0306118
0.0291412
0.0211506
0.0110321
0.00479098
0.00198916
0.000306017
-3.67344e-05
-5.01952e-05
-2.19705e-05
-1.34924e-05
1.5738
0.89386
0.406698
0.128095
0.0414013
0.021948
0.0150573
0.0118756
0.0170669
0.0212987
0.0262621
0.0316432
0.0277763
0.0192144
0.0127315
0.00439745
0.00161813
0.00056539
-6.74589e-05
-0.000107926
-5.07259e-05
-1.76492e-05
-1.52388e-05
1.45628
0.622777
0.202031
0.0581816
0.0315205
0.0270783
0.0259427
0.0235508
0.0313168
0.0333697
0.0333091
0.026529
0.0158446
0.00481911
0.00428004
0.000756109
0.000150272
-8.05303e-05
-0.000115265
-7.07489e-05
-2.39353e-05
-8.31007e-06
-1.58855e-05
1.32339
0.354099
0.0566635
0.0275636
0.0341765
0.036807
0.0351778
0.0334561
0.0331756
0.0268732
0.013542
0.00678946
0.00357754
0.000932559
0.00118813
-8.91797e-05
-0.000136223
-9.4752e-05
-5.87469e-05
-2.46064e-05
-6.13183e-06
-7.11186e-06
-1.94772e-05
1.07835
0.14577
0.0153251
0.0264928
0.0334904
0.0293448
0.0197594
0.0129602
0.0081058
0.00348116
0.000921089
0.000419997
-0.000776914
-0.000688961
-6.36161e-05
-0.00021341
-0.000128373
-6.52769e-05
-1.86941e-05
-4.897e-06
-1.38483e-06
-9.09797e-06
-2.3642e-05
0.888477
0.000995439
-0.00993474
0.0147198
0.0151601
0.00825997
0.00328597
0.000765625
1.34562e-05
-0.00105564
-0.000740573
-0.000637213
-0.000728147
-0.00059128
-0.000270093
-0.000157083
-7.9735e-05
-1.40749e-05
4.44135e-06
2.46483e-06
-1.32612e-06
-1.13188e-05
-2.94964e-05
0.542462
-0.0820133
-0.0164918
0.00326075
0.00283199
0.000665113
0.000183963
-5.99568e-05
-0.00013551
-0.00052051
-0.000599409
-0.000632343
-0.00061084
-0.000470855
-0.000274196
-0.000110087
-1.61346e-05
7.95155e-06
6.93141e-06
2.4461e-06
-1.8586e-06
-1.14255e-05
-3.11027e-05
0.0895566
-0.0531578
-0.00767764
0.00191384
0.00170637
0.000658813
0.000476444
0.000388791
0.000314605
-0.000229883
-0.000502066
-0.000569666
-0.000565611
-0.000480144
-0.000304589
-9.1991e-05
-1.17502e-05
5.92195e-06
5.42578e-06
1.43919e-06
-1.87939e-06
-1.10684e-05
-3.10883e-05
-0.210058
0.597116
2.32903
4.10025
-2.91885
-1.74919
0.423628
1.39232
-3.81351
-3.76069
-2.32406
-0.990639
-3.17432
-2.8991
-1.33923
-0.260447
0.556764
0.400935
1.03025
1.17584
1.76441
2.12911
2.46297
1.63179
1.29619
1.2232
1.06502
1.0023
1.00626
0.922137
0.918505
0.853429
0.57318
0.528716
0.519287
0.463685
0.254764
0.253635
0.270319
0.271178
0.0856058
0.0903734
0.113299
0.127645
0.033007
0.03271
0.0386859
0.04407
0.0162512
0.0130442
0.0141153
0.0148693
0.00814003
0.00634377
0.00686203
0.0074758
0.00995479
0.00455939
0.00290814
0.00374268
0.0152929
0.00817144
0.00383949
0.00206806
0.00525035
0.00230326
0.000403099
-0.000597147
0.00377125
0.00152372
0.000109271
-0.000695584
0.000947407
9.49286e-05
-0.000278228
-0.000428336
0.000849198
0.000329665
9.1578e-06
-0.000164805
0.000239341
-9.5509e-06
-8.40858e-05
-0.000107648
0.000998613
0.000443171
0.000146454
-5.84019e-05
0.000461027
0.000279771
8.66041e-05
-1.6927e-05
6.87089e-05
9.95029e-05
3.76514e-05
4.44908e-08
-4.32936e-05
-1.6825e-06
-6.43867e-06
-1.31874e-05
-4.42463e-05
-2.33145e-05
-1.39814e-05
-9.63378e-06
-2.03514e-05
-1.2516e-05
-6.65334e-06
-3.55588e-06
-5.93143e-06
-3.20779e-06
-1.771e-06
-9.31974e-07
-1.80556e-06
-1.38387e-06
-8.36306e-07
-6.79853e-07
1.66163e-06
-9.63967e-08
-5.87813e-07
-7.39734e-07
3.83688e-06
3.4377e-07
-8.23778e-07
-1.33013e-06
7.38066e-06
3.16211e-06
6.11847e-07
-1.18154e-06
3.08517e-06
-4.07665e-07
-2.90445e-06
-5.77704e-06
-5.77994e-06
-7.76848e-06
-1.03562e-05
-1.45464e-05
-1.37754e-05
-1.58139e-05
-1.95482e-05
-2.4654e-05
-1.98131e-05
-2.48715e-05
-3.11996e-05
-3.7618e-05
-2.75108e-05
-3.56909e-05
-4.26588e-05
-4.78263e-05
-3.55227e-05
-4.60847e-05
-5.37637e-05
-5.63514e-05
-4.09267e-05
-5.19322e-05
-6.01389e-05
-6.03344e-05
-4.78812e-05
-5.77368e-05
-6.35314e-05
-6.25878e-05
-5.01845e-05
-6.0676e-05
-6.58819e-05
-6.31309e-05
-5.00375e-05
-6.11554e-05
-6.67386e-05
-6.41571e-05
-3.38403
0.166074
1.23545
2.00683
2.71447
2.50627
2.82032
2.57672
2.67574
2.79634
2.80561
2.69777
2.59682
2.26883
1.60023
1.22629
0.394212
0.000155844
-0.324925
-1.76503
-0.974824
1.24489
2.71151
2.15904
2.32434
2.80796
2.767
2.50672
2.28393
2.25002
2.40683
2.39321
2.17119
1.7463
1.31927
1.06878
0.114216
-0.487365
-0.947306
-0.35772
1.53771
2.31916
2.42588
2.83033
3.10527
2.9469
2.62427
2.54981
2.96894
2.90529
2.16431
2.59976
3.44862
2.48894
1.3115
0.696735
-0.217649
-0.597147
0.156411
2.30783
1.95527
2.32612
2.75141
3.19237
3.25876
4.08405
4.01668
4.1207
4.0731
3.7236
3.9223
3.28955
2.41777
1.66315
1.87675
0.651371
-0.278984
2.08403
2.13654
2.06318
2.16193
1.67918
1.91079
1.6713
2.91058
2.79302
2.47437
2.33756
3.48856
3.34423
2.1534
2.14556
1.35819
2.1648
2.0601
0.970202
2.3697
2.04441
1.76896
1.37641
0.850087
0.884961
0.684058
0.998854
0.823081
0.837217
0.756389
0.8906
0.947732
0.719181
1.24034
0.948528
2.13346
3.21548
1.53285
1.90582
1.3918
1.03014
0.762445
0.495382
0.498795
0.488389
0.448252
0.304382
0.301736
0.3029
0.242892
0.352929
0.581846
0.928835
1.36693
2.4396
3.73306
0.886761
0.898885
0.659087
0.499179
0.421427
0.362634
0.377402
0.363508
0.265654
0.203138
0.183715
0.169738
0.167265
0.207655
0.26446
0.347018
0.604674
1.2661
3.14776
0.455213
0.429651
0.37715
0.336881
0.319287
0.284108
0.293252
0.283465
0.223394
0.163367
0.116077
0.100775
0.105739
0.084058
0.0586925
0.00627252
0.058012
0.273151
1.49871
0.285313
0.266576
0.247033
0.216891
0.210404
0.193815
0.202324
0.222598
0.228452
0.201985
0.136775
0.0948926
0.0671265
0.0426956
0.0243194
0.00196961
-0.0120301
-8.54374e-05
0.119186
0.139516
0.134637
0.133736
0.1284
0.121784
0.097862
0.10089
0.147603
0.191823
0.209445
0.158538
0.12096
0.095894
0.0691585
0.0383832
0.0198129
0.00474699
-0.0267993
-0.0667918
0.0475417
0.0504
0.0556571
0.0579113
0.0507468
0.0395778
0.0440076
0.0749898
0.131363
0.162197
0.17571
0.160173
0.140388
0.107346
0.0609942
0.0384379
0.0214227
0.0109272
0.00260883
0.0128163
0.0150529
0.0185434
0.0208644
0.0188447
0.0125376
0.0139602
0.0240686
0.0556474
0.0936649
0.122747
0.132278
0.135027
0.116242
0.0714652
0.0356152
0.0192601
0.0153915
0.0147818
0.00461756
0.00468045
0.00494394
0.00453865
0.00626122
0.00435588
0.00397753
0.00415498
0.0142536
0.0333378
0.0599184
0.0789352
0.094266
0.109142
0.0702857
0.0375141
0.0181335
0.0130813
0.0123808
0.00270626
0.00173852
0.00134426
0.000751379
0.00157776
0.00168512
0.00149136
0.00111593
0.00274597
0.00781443
0.0221276
0.0371592
0.056621
0.0858483
0.0618708
0.0384609
0.0186965
0.0113778
0.0112254
0.00162492
0.00102736
0.000467007
0.000119099
8.87354e-05
0.000379027
0.000916567
0.000653897
0.000378432
0.000176517
0.00417044
0.0105934
0.0242094
0.0521591
0.045529
0.0374213
0.0182973
0.00931039
0.0106042
0.000165644
0.00032065
0.000130787
-6.07749e-05
-6.37581e-05
-8.73636e-05
0.000343918
0.000434758
0.000227392
-0.000318651
0.000183794
0.000601537
0.00464726
0.0219009
0.0237306
0.0234129
0.0121428
0.00732104
0.0102794
-0.000223629
-9.40717e-05
-5.87847e-05
-9.83267e-05
-0.000111494
-0.000108967
7.10858e-05
0.000147954
0.000148481
-3.63265e-06
-0.000135553
-0.00042546
-0.000753729
0.00415528
0.00792553
0.00835908
0.00538042
0.00604897
0.010029
-0.000218052
-0.00015519
-9.50839e-05
-8.37168e-05
-6.73096e-05
-5.78759e-05
-3.18216e-05
1.8749e-05
4.37934e-05
3.42351e-05
-3.17569e-05
-0.000223399
-0.000511033
0.00124369
0.00116047
0.00260371
0.00244896
0.00513855
0.0098104
-0.000148014
-0.000104961
-8.2597e-05
-6.36461e-05
-3.72145e-05
-3.54416e-05
-3.24276e-05
-1.11889e-05
-9.78164e-06
-2.86885e-06
-4.74132e-06
-5.22547e-05
-0.000199383
0.000235255
-2.06417e-05
0.00053554
0.00142459
0.00486025
0.0094685
-8.64574e-05
-5.58836e-05
-5.03259e-05
-2.69194e-05
-8.76615e-06
-9.59833e-06
-1.30083e-05
-1.29342e-05
-1.3751e-05
-1.34518e-05
-1.03838e-05
-1.41692e-05
-6.90555e-05
-5.13629e-05
-0.000136641
9.17874e-05
0.00120533
0.00481322
0.00906924
-2.49902e-05
-1.62044e-05
-1.24359e-05
-3.58111e-06
5.90459e-07
-6.3349e-07
-2.73994e-06
-5.93162e-06
-8.1824e-06
-8.9106e-06
-8.42074e-06
-8.26363e-06
-2.73347e-05
-7.50768e-05
-0.000112325
-3.27057e-05
0.000833545
0.00408062
0.008651
-5.35522e-06
-2.07293e-07
-1.03629e-06
5.98067e-07
1.50025e-06
7.68201e-07
-1.49599e-07
-1.82967e-06
-4.17128e-06
-4.47175e-06
-5.46839e-06
-6.23865e-06
-1.32172e-05
-5.4728e-05
-8.4316e-05
-1.57476e-05
0.00076639
0.00370378
0.0083305
-6.22799e-06
-1.36276e-06
5.31106e-07
8.19827e-07
6.45237e-07
5.11496e-07
-5.87608e-08
-1.40475e-06
-3.52558e-06
-4.8528e-06
-5.08357e-06
-4.45973e-06
-6.72812e-06
-3.64141e-05
-7.05423e-05
-6.35542e-05
0.000748192
0.00405695
0.00808009
-5.99576e-06
-9.22081e-07
2.51456e-07
2.7217e-07
2.18792e-07
-2.13118e-07
-8.88253e-07
-2.38972e-06
-4.5987e-06
-6.79468e-06
-7.08797e-06
-6.52498e-06
-6.79611e-06
-2.403e-05
-6.34614e-05
-8.18731e-05
0.000463437
0.00321077
0.00770156
-2.92082e-06
-2.49963e-07
1.29136e-07
3.76585e-10
-1.4166e-07
-9.17382e-07
-2.50449e-06
-4.6821e-06
-7.31717e-06
-1.07158e-05
-1.13873e-05
-9.87429e-06
-9.25734e-06
-1.45352e-05
-5.93899e-05
-0.00010516
0.00049784
0.00323609
0.00744906
-5.95792e-07
6.00837e-08
-5.47203e-08
-3.26386e-07
-9.77457e-07
-2.60138e-06
-5.56177e-06
-8.83052e-06
-1.1547e-05
-1.51943e-05
-1.62577e-05
-1.50867e-05
-1.43441e-05
-2.05637e-05
-5.96714e-05
-9.64519e-05
0.000446932
0.00306788
0.00718542
-2.05545e-07
-9.24354e-08
-4.39058e-07
-1.61927e-06
-5.35094e-06
-8.4842e-06
-1.206e-05
-1.53062e-05
-1.63702e-05
-1.67751e-05
-1.59218e-05
-1.48726e-05
-1.41341e-05
-1.89131e-05
-5.55412e-05
-9.37522e-05
0.000310632
0.00260679
0.00675867
-6.7045e-07
-9.6147e-07
-2.34042e-06
-5.5201e-06
-1.15778e-05
-1.78637e-05
-1.88548e-05
-1.8888e-05
-1.74963e-05
-1.19264e-05
-6.62783e-06
-1.0184e-05
-1.17345e-05
-1.55922e-05
-4.7772e-05
-9.40281e-05
0.000205444
0.00220254
0.00628685
-8.99368e-07
-2.73821e-06
-5.02428e-06
-1.26852e-05
-2.05584e-05
-2.14284e-05
-1.92974e-05
-1.45964e-05
-1.08035e-06
1.69265e-05
2.2793e-05
9.83994e-06
5.5996e-06
-6.29683e-07
-4.00993e-05
-8.57502e-05
-8.93578e-06
0.00140556
0.00602579
-2.15625e-06
-7.4e-06
-1.3667e-05
-2.38863e-05
-2.49571e-05
-2.16063e-05
-1.14513e-05
4.45295e-06
4.53806e-05
8.12707e-05
9.22747e-05
7.56452e-05
7.04452e-05
3.21451e-05
-4.05253e-05
-8.95399e-05
3.33786e-06
0.00203992
0.00666059
-3.32497e-06
-1.07015e-05
-2.2472e-05
-2.86512e-05
-2.87556e-05
-2.31182e-05
-8.64317e-06
3.88766e-05
0.000118124
0.00018187
0.000258215
0.000202076
0.000178916
0.000129278
4.95106e-06
-8.04518e-05
6.67578e-05
0.00216067
0.00626681
-1.03814e-05
-2.15712e-05
-3.17269e-05
-3.1817e-05
-2.04552e-05
1.24093e-05
6.25185e-05
0.000204701
0.000411995
0.000538128
0.000550489
0.000483396
0.000366101
0.000260881
5.15433e-05
-6.24207e-05
7.10221e-05
0.00210873
0.00651438
-2.36462e-05
-3.47243e-05
-3.49962e-05
-2.43265e-05
5.01045e-05
0.000174954
0.000345172
0.000494216
0.000707063
0.00107416
0.000985693
0.000792015
0.000589625
0.000419075
0.000110725
-4.7495e-05
4.24061e-05
0.0024852
0.00732768
-3.41548e-05
-3.82298e-05
-3.57388e-05
-2.40183e-06
8.95339e-05
0.000301042
0.000721799
0.000987331
0.001257
0.00153268
0.00146251
0.00126272
0.000933415
0.00055403
0.000158128
-3.87489e-05
0.000106138
0.00384277
0.00736767
-4.33676e-05
-3.95608e-05
-2.62893e-05
4.85394e-05
0.000209847
0.000470501
0.00100996
0.00149884
0.00185622
0.00196559
0.00193827
0.0017849
0.00131145
0.000827292
0.000259988
1.53477e-05
0.000149975
0.00319171
0.00639638
-4.81854e-05
-3.49998e-05
-7.39225e-06
7.45272e-05
0.000245715
0.000481461
0.00105105
0.00176899
0.00216217
0.00214891
0.0020839
0.00190601
0.00146809
0.000891141
0.000324161
6.70058e-05
0.000271113
0.00262555
0.00465834
-5.15826e-05
-9.93659e-06
7.23535e-05
0.00020673
0.000516779
0.000910588
0.00153888
0.00210028
0.00213617
0.00200283
0.00194748
0.00184701
0.00147808
0.000968387
0.000389831
0.000124173
0.000281874
0.00212817
0.00521893
-4.70786e-05
1.28366e-05
0.000148555
0.000390963
0.000890308
0.0015874
0.00202825
0.002123
0.00193373
0.00172214
0.00172766
0.00181854
0.00149041
0.00094181
0.000428646
0.000135017
0.000320453
0.00235723
0.0055421
-4.32547e-05
2.6634e-05
0.000195723
0.000569098
0.00125172
0.00206764
0.00219275
0.00193642
0.00154576
0.00139228
0.00144121
0.00174077
0.00153118
0.000984329
0.000483847
0.000149427
0.000386131
0.00223663
0.00537988
-3.88931e-05
5.49181e-05
0.000250086
0.000495362
0.00091767
0.0017317
0.0021164
0.00168045
0.0013351
0.00121174
0.00133235
0.00156689
0.00151821
0.00100819
0.000575091
0.00020731
0.000516206
0.00227838
0.00529442
-4.29165e-05
5.63355e-05
0.000303836
0.000515699
0.000718666
0.00121441
0.00186828
0.00150762
0.0011861
0.0011117
0.00117695
0.00129364
0.00134896
0.000932034
0.000620904
0.000342565
0.000520321
0.00165589
0.0037164
)
;

boundaryField
{
    leftWall
    {
        type            zeroGradient;
    }
    rightWall
    {
        type            zeroGradient;
    }
    lowerWall
    {
        type            zeroGradient;
    }
    atmosphere
    {
        type            zeroGradient;
    }
    defaultFaces
    {
        type            empty;
    }
}


// ************************************************************************* //
