/*--------------------------------*- C++ -*----------------------------------*\
| =========                 |                                                 |
| \\      /  F ield         | foam-extend: Open Source CFD                    |
|  \\    /   O peration     | Version:     4.1                                |
|   \\  /    A nd           | Web:         http://www.foam-extend.org         |
|    \\/     M anipulation  |                                                 |
\*---------------------------------------------------------------------------*/
FoamFile
{
    version     2.0;
    format      ascii;
    class       volVectorField;
    location    "1";
    object      U;
}
// * * * * * * * * * * * * * * * * * * * * * * * * * * * * * * * * * * * * * //

dimensions      [0 1 -1 0 0 0 0];

internalField   nonuniform List<vector> 
2268
(
(0.0150991 -0.00261715 0)
(0.0216491 0.00364524 0)
(0.0489182 -0.0137762 0)
(0.0434868 -0.0154771 0)
(0.0853495 0.00279608 0)
(0.135407 -0.00567163 0)
(0.129329 -0.000310741 0)
(0.158373 -0.00355359 0)
(0.170093 0.0268089 0)
(0.175757 0.00281486 0)
(0.264088 0.00727992 0)
(0.243697 -0.028727 0)
(0.216449 -0.00442223 0)
(0.238011 -0.00129372 0)
(0.241781 -0.00746109 0)
(0.23361 0.00445447 0)
(0.229114 0.0146448 0)
(0.20621 0.00374439 0)
(0.205127 0.0105835 0)
(0.179094 -0.053441 0)
(0.107276 0.0104681 0)
(0.0650676 -0.0190933 0)
(0.0462836 0.0235034 0)
(0.0380492 -0.0146741 0)
(0.034522 -0.00362399 0)
(0.0510373 -0.0125799 0)
(0.0516769 0.000968334 0)
(0.0937015 0.00166112 0)
(0.136287 -0.00242151 0)
(0.136173 -0.00632083 0)
(0.176189 -0.00739757 0)
(0.173192 -0.0371068 0)
(0.1838 -0.0464713 0)
(0.236446 -0.0275712 0)
(0.229374 -0.0523746 0)
(0.211674 -0.00988984 0)
(0.229586 -0.0192533 0)
(0.23716 0.0123202 0)
(0.232996 -0.000421112 0)
(0.225719 0.0105306 0)
(0.195483 0.0287428 0)
(0.188191 0.0885628 0)
(0.194348 0.0183675 0)
(0.138214 0.0349125 0)
(0.0351435 0.050558 0)
(0.0636458 0.0276986 0)
(0.0283503 -0.0195757 0)
(0.0300061 -0.0187707 0)
(0.0594278 -0.0227627 0)
(0.0566078 -0.00423314 0)
(0.0879169 -0.0185576 0)
(0.138323 -0.0330133 0)
(0.134637 -0.0103884 0)
(0.144247 -0.0103127 0)
(0.153717 -0.0413267 0)
(0.195084 -0.0591066 0)
(0.253977 -0.00988429 0)
(0.222906 -0.0811609 0)
(0.188834 0.0016208 0)
(0.204238 -0.00863867 0)
(0.207237 -0.0138585 0)
(0.192615 0.0238073 0)
(0.231096 0.0176594 0)
(0.211076 -0.00117299 0)
(0.171153 0.0866856 0)
(0.140231 0.0419625 0)
(0.128449 0.0739085 0)
(0.0657382 0.0608056 0)
(0.0494151 0.0790915 0)
(0.0139576 -0.0293725 0)
(0.0229261 -0.0333795 0)
(0.0618535 -0.0176476 0)
(0.0620501 -0.0355735 0)
(0.0923585 0.0149031 0)
(0.137405 -0.0567275 0)
(0.143057 -0.012383 0)
(0.152441 -0.0448699 0)
(0.148583 -0.0237739 0)
(0.183618 -0.0143281 0)
(0.188586 -0.0520966 0)
(0.201343 -0.0496381 0)
(0.190308 -0.0208302 0)
(0.172539 -0.029697 0)
(0.214658 0.0405333 0)
(0.200116 0.0588608 0)
(0.15049 0.0294814 0)
(0.168218 -0.0289074 0)
(0.153671 0.0472646 0)
(0.131447 0.0338642 0)
(0.122931 0.0901109 0)
(0.0484713 0.134627 0)
(0.0702698 0.069898 0)
(0.00655311 -0.0366956 0)
(0.0249331 -0.0174212 0)
(0.0623789 -0.0451067 0)
(0.0780069 -0.0448127 0)
(0.0869271 -0.0105514 0)
(0.11773 -0.0387686 0)
(0.131698 -0.0402034 0)
(0.132604 -0.0461756 0)
(0.149016 -0.0661873 0)
(0.151902 -0.00412838 0)
(0.178828 -0.0772056 0)
(0.194275 -0.0656997 0)
(0.160601 -0.0973626 0)
(0.205621 -0.00946989 0)
(0.238751 0.0358197 0)
(0.179254 0.00796032 0)
(0.1593 0.012818 0)
(0.173683 0.0563164 0)
(0.1113 0.0343299 0)
(0.113456 0.0482583 0)
(0.135007 0.0519142 0)
(0.0320098 0.125113 0)
(0.0142895 0.14899 0)
(0.0139816 -0.0448409 0)
(0.0145894 -0.0522511 0)
(0.0449548 -0.0335789 0)
(0.0618393 -0.0408711 0)
(0.0931169 -0.0298107 0)
(0.124078 -0.0331074 0)
(0.115725 -0.0459117 0)
(0.100586 -0.0380234 0)
(0.136568 -0.0430582 0)
(0.135036 -0.0411359 0)
(0.137228 -0.0629783 0)
(0.181382 -0.0765883 0)
(0.208144 -0.047646 0)
(0.198438 0.00396151 0)
(0.202752 -0.00105313 0)
(0.208842 0.0480817 0)
(0.204478 0.0459077 0)
(0.198674 0.0608766 0)
(0.129871 0.0649224 0)
(0.0769406 0.0687986 0)
(0.102166 0.0793776 0)
(0.0657159 0.0988499 0)
(0.0643188 0.205528 0)
(0.000999292 -0.0501264 0)
(0.0176199 -0.0549462 0)
(0.0519569 -0.0818714 0)
(0.0505648 -0.105951 0)
(0.0445737 -0.0251675 0)
(0.0646184 -0.0354066 0)
(0.082029 -0.0360619 0)
(0.0921686 -0.0581855 0)
(0.127203 -0.0378386 0)
(0.122076 -0.0371634 0)
(0.153259 -0.037815 0)
(0.208314 0.0127828 0)
(0.139301 -0.0403759 0)
(0.181748 -0.0708619 0)
(0.231649 -0.00557471 0)
(0.193801 0.0737499 0)
(0.193661 0.0954803 0)
(0.225691 0.0566535 0)
(0.172972 0.0872018 0)
(0.0942013 0.178625 0)
(0.115707 0.08484 0)
(0.0814403 0.113703 0)
(0.0923098 0.323076 0)
(0.00729056 -0.0497661 0)
(-0.0151245 -0.0237129 0)
(-0.00507487 -0.0684003 0)
(0.0388898 -0.0836085 0)
(0.0609906 -0.0785574 0)
(0.0621636 -0.0608456 0)
(0.078253 -0.0596514 0)
(0.0824748 -0.0633288 0)
(0.137152 -0.0449476 0)
(0.120217 -0.0689361 0)
(0.146572 -0.0236217 0)
(0.152271 -0.0923096 0)
(0.102534 -0.0959736 0)
(0.121348 -0.0109736 0)
(0.151619 -0.0722107 0)
(0.228825 0.000231293 0)
(0.207631 0.135426 0)
(0.253347 0.108607 0)
(0.261906 0.0474007 0)
(0.149265 0.172395 0)
(0.105406 0.0308999 0)
(0.152828 0.0720928 0)
(0.13946 0.314724 0)
(-0.612593 0.123986 0)
(-0.668006 0.112647 0)
(-0.753991 -0.0208424 0)
(-0.713892 -0.110033 0)
(-0.515876 -0.0612093 0)
(-0.449997 -0.0118906 0)
(-0.420439 -0.0230022 0)
(-0.425213 -0.0184989 0)
(-0.422956 -0.0164891 0)
(-0.437377 -0.0103035 0)
(-0.43284 -0.0132261 0)
(-0.395997 -0.00385872 0)
(-0.390349 0.00608634 0)
(-0.35696 -0.0206951 0)
(-0.345726 -0.0337129 0)
(-0.402164 -0.0245644 0)
(-0.277199 0.00632554 0)
(-0.179933 -0.0675176 0)
(-0.0594966 -0.0173445 0)
(-0.542759 0.168846 0)
(-0.536954 0.19605 0)
(-0.531118 0.0336116 0)
(-0.540919 -0.0667355 0)
(-0.256676 -0.0866568 0)
(-0.0619869 -0.030566 0)
(-0.0828818 0.0180858 0)
(-0.141045 0.0188459 0)
(-0.16948 0.0320915 0)
(-0.243388 0.0234546 0)
(-0.248574 -0.00480362 0)
(-0.224124 -0.0162946 0)
(-0.231329 -0.0289437 0)
(-0.286195 -0.0264809 0)
(-0.253063 -0.10658 0)
(-0.363631 0.00575324 0)
(-0.267945 0.0330481 0)
(-0.156563 -0.108952 0)
(-0.0184888 -0.0868308 0)
(-0.473939 0.332335 0)
(-0.430486 0.34879 0)
(-0.414497 0.0421967 0)
(-0.428849 -0.111834 0)
(-0.264817 -0.270619 0)
(0.106129 -0.0882229 0)
(0.153731 0.0145108 0)
(0.0611774 0.0144146 0)
(0.135661 0.0378778 0)
(-0.0054569 0.0276446 0)
(-0.092345 -0.0302033 0)
(-0.107806 -0.0538938 0)
(-0.0925581 -0.0569626 0)
(-0.210181 -0.0189329 0)
(-0.180295 -0.0708432 0)
(-0.216837 -0.0228789 0)
(-0.204102 -0.0400058 0)
(-0.0673002 -0.0800449 0)
(0.0373836 -0.0968421 0)
(-0.398737 0.367815 0)
(-0.240618 0.340012 0)
(-0.235307 -0.00435117 0)
(-0.27856 -0.367463 0)
(-0.226685 -0.5415 0)
(0.136808 -0.223028 0)
(0.213453 0.0871866 0)
(0.194523 0.0577182 0)
(0.308091 0.00242915 0)
(0.152959 0.115344 0)
(0.0352134 0.0658109 0)
(0.031623 -0.0205081 0)
(0.0107858 -0.0288506 0)
(-0.0270341 -0.036011 0)
(-0.0644863 -0.00800222 0)
(-0.0598457 -0.050451 0)
(4.39213e-05 -0.0381076 0)
(0.0453298 -0.0689986 0)
(0.0554519 -0.0990548 0)
(-0.29399 0.441075 0)
(-0.106303 0.432957 0)
(-0.158052 0.0561725 0)
(-0.202708 -0.431657 0)
(-0.0378929 -0.513532 0)
(0.168817 -0.287287 0)
(0.385877 -0.00229545 0)
(0.315221 0.134456 0)
(0.362647 0.0719267 0)
(0.351842 0.0610921 0)
(0.264209 0.0601792 0)
(0.166583 -1.59268e-05 0)
(0.139767 -0.0147756 0)
(0.0194166 0.00462164 0)
(-0.0126013 -0.027903 0)
(-0.0345167 -0.0363343 0)
(0.0361674 -0.0544245 0)
(0.0741478 -0.0703001 0)
(0.0695563 -0.078648 0)
(-0.215597 0.451558 0)
(0.0460185 0.37112 0)
(-0.0587365 0.0231583 0)
(-0.0679538 -0.455685 0)
(0.0445578 -0.396439 0)
(0.235883 -0.294285 0)
(0.460578 -0.168618 0)
(0.437688 0.0678963 0)
(0.516517 0.107969 0)
(0.540076 0.065988 0)
(0.486289 0.0971559 0)
(0.293725 0.169839 0)
(0.240059 0.0455328 0)
(0.100874 -0.00334958 0)
(0.0423263 -0.00675867 0)
(-0.0161345 -0.0476981 0)
(0.039418 -0.0884837 0)
(0.0605281 -0.0543205 0)
(0.0548176 -0.0704698 0)
(-0.139089 0.470246 0)
(0.216306 0.418521 0)
(0.110897 0.112458 0)
(0.114735 -0.538873 0)
(0.190714 -0.475809 0)
(0.274812 -0.341026 0)
(0.431023 -0.164337 0)
(0.415833 0.0244248 0)
(0.473104 0.120183 0)
(0.53806 0.0705274 0)
(0.540066 0.135297 0)
(0.440089 0.164751 0)
(0.313222 0.124381 0)
(0.18717 0.0752976 0)
(0.117713 -0.00345683 0)
(0.0213472 -0.0387661 0)
(0.078935 -0.08995 0)
(0.0753936 -0.0436121 0)
(0.0557087 -0.0528393 0)
(-0.080714 0.426978 0)
(0.366364 0.336169 0)
(0.209657 0.0382124 0)
(0.30528 -0.307527 0)
(0.300199 -0.430072 0)
(0.307854 -0.371386 0)
(0.407801 -0.158948 0)
(0.404732 -0.101707 0)
(0.392351 0.0263382 0)
(0.500433 0.0684737 0)
(0.500937 0.156162 0)
(0.381531 0.139164 0)
(0.327377 0.144523 0)
(0.243904 0.12649 0)
(0.179601 0.0334961 0)
(0.126359 -0.0555876 0)
(0.130021 -0.122254 0)
(0.128999 -0.053121 0)
(0.0789981 -0.0157031 0)
(0.00282914 -0.0458693 0)
(0.0151753 -0.0589396 0)
(0.0141022 -0.0350094 0)
(0.0212488 -0.027367 0)
(0.0292915 -0.0790495 0)
(0.0678531 -0.0800898 0)
(0.0941066 -0.0758289 0)
(0.0901723 -0.102991 0)
(0.0556471 -0.075504 0)
(0.0774492 -0.127222 0)
(0.0668686 -0.0104143 0)
(-0.0138243 -0.12067 0)
(-0.00186313 -0.0549642 0)
(-0.017648 -0.1612 0)
(0.0334853 0.00342196 0)
(0.124261 -0.0499086 0)
(0.180497 0.0544 0)
(0.23749 0.156491 0)
(0.285424 0.126301 0)
(0.217702 0.0713794 0)
(0.208782 0.107342 0)
(0.304257 0.0813392 0)
(0.269336 0.162165 0)
(-0.0128084 -0.069817 0)
(-0.00175477 -0.0765316 0)
(0.065874 -0.079928 0)
(0.0854397 -0.0942332 0)
(0.0693559 -0.0763522 0)
(0.0883841 -0.0648887 0)
(0.0121854 -0.078627 0)
(0.00423269 -0.114521 0)
(-0.0815009 -0.0101697 0)
(-0.157653 0.051282 0)
(-0.209086 0.0764196 0)
(-0.292954 -0.0414417 0)
(-0.258752 -0.0664354 0)
(-0.240276 -0.148331 0)
(-0.165157 -0.194029 0)
(-0.0658734 -0.14735 0)
(-0.0669285 -0.0438779 0)
(0.218255 0.106397 0)
(0.238708 0.194748 0)
(0.287068 0.150887 0)
(0.332652 0.115986 0)
(0.304152 0.0562063 0)
(0.343723 0.0924363 0)
(0.0159931 -0.122918 0)
(0.0560423 -0.0646965 0)
(0.09181 -0.0569536 0)
(0.0957766 -0.0877981 0)
(0.102623 -0.0794367 0)
(0.0756949 -0.091417 0)
(-0.0591656 -0.0402997 0)
(-0.0922152 0.0963109 0)
(-0.150449 0.157828 0)
(-0.198428 0.110568 0)
(-0.366448 0.076606 0)
(-0.372413 0.03259 0)
(-0.285757 -0.0527757 0)
(-0.343625 -0.124203 0)
(-0.347848 -0.154938 0)
(-0.330739 -0.14945 0)
(-0.309348 -0.203545 0)
(-0.105183 -0.0615065 0)
(-0.0286065 -0.0327569 0)
(0.163192 0.0880118 0)
(0.140176 -0.0727453 0)
(0.271961 0.0192408 0)
(0.546829 0.176317 0)
(0.144464 -0.211589 0)
(0.185206 -0.172923 0)
(0.157494 -0.118032 0)
(0.145324 -0.0114431 0)
(0.105118 0.0021648 0)
(0.0451049 0.012325 0)
(-0.0303426 0.0802204 0)
(-0.178247 0.198909 0)
(-0.209192 0.205643 0)
(-0.185108 0.130293 0)
(-0.143918 0.0385913 0)
(-0.269995 0.145249 0)
(-0.268478 -0.0562316 0)
(-0.213988 -0.108897 0)
(-0.38617 -0.191547 0)
(-0.46226 -0.253623 0)
(-0.473218 -0.272407 0)
(-0.380743 -0.186194 0)
(-0.305775 -0.0862113 0)
(-0.124571 -0.0315951 0)
(-0.0435338 -0.120991 0)
(0.20598 -0.00572627 0)
(0.333291 -0.00822628 0)
(0.131319 -0.283957 0)
(0.270009 -0.271756 0)
(0.294358 -0.176586 0)
(0.285032 -0.061969 0)
(0.221486 0.0194949 0)
(0.147187 0.136746 0)
(-0.0396416 0.191332 0)
(-0.133181 0.23933 0)
(-0.081984 0.213196 0)
(-0.100968 0.189937 0)
(-0.0664039 0.0739877 0)
(-0.135726 0.0495206 0)
(-0.216885 0.141482 0)
(-0.176146 0.0216423 0)
(-0.498274 -0.0999334 0)
(-0.605548 -0.204351 0)
(-0.504632 -0.225616 0)
(-0.473625 -0.218812 0)
(-0.533891 -0.267106 0)
(-0.535332 -0.29784 0)
(-0.388063 -0.267197 0)
(-0.294808 -0.0864444 0)
(-0.169662 -0.049961 0)
(0.0378398 -0.427884 0)
(0.179871 -0.297374 0)
(0.17389 -0.142512 0)
(0.327455 0.0907293 0)
(0.205303 0.133802 0)
(0.0664013 0.184335 0)
(-0.0606242 0.227148 0)
(-0.0710407 0.235932 0)
(-0.0358337 0.125189 0)
(-0.184813 0.134356 0)
(-0.253137 0.178592 0)
(-0.3402 0.197424 0)
(-0.451644 0.145471 0)
(-0.457855 0.0658802 0)
(-0.540044 -0.0663626 0)
(-0.590359 -0.0647879 0)
(-0.526416 -0.0729677 0)
(-0.530755 -0.253828 0)
(-0.698814 -0.33041 0)
(-0.698269 -0.385153 0)
(-0.458405 -0.339321 0)
(-0.441597 -0.259459 0)
(-0.428645 -0.203767 0)
(0.0265302 -0.561032 0)
(0.116748 -0.531219 0)
(0.00925177 -0.187932 0)
(0.197411 0.186645 0)
(0.127513 0.182079 0)
(0.0170794 0.267235 0)
(-0.123695 0.325888 0)
(-0.112885 0.225753 0)
(-0.178867 0.162212 0)
(-0.361602 0.281641 0)
(-0.402047 0.362478 0)
(-0.495549 0.241701 0)
(-0.473251 0.154168 0)
(-0.476322 0.0674616 0)
(-0.522281 -0.0604853 0)
(-0.471105 -0.127259 0)
(-0.513909 -0.201561 0)
(-0.498069 -0.321929 0)
(-0.467487 -0.329762 0)
(-0.549097 -0.211943 0)
(-0.504632 -0.291028 0)
(-0.409209 -0.367064 0)
(-0.336091 -0.337815 0)
(-0.078721 -0.586515 0)
(-0.00664585 -0.556913 0)
(0.103947 -0.359444 0)
(-0.117504 0.193169 0)
(-0.0436391 0.325912 0)
(-0.139746 0.374912 0)
(-0.161488 0.347392 0)
(-0.15919 0.292698 0)
(-0.282666 0.344775 0)
(-0.307142 0.36313 0)
(-0.408229 0.372106 0)
(-0.467291 0.317279 0)
(-0.391084 0.293021 0)
(-0.414743 0.117549 0)
(-0.305766 -0.0285772 0)
(-0.337689 -0.135363 0)
(-0.361871 -0.254212 0)
(-0.356781 -0.310607 0)
(-0.193357 -0.332058 0)
(-0.230181 -0.264779 0)
(-0.283945 -0.223121 0)
(-0.313992 -0.20523 0)
(-0.274369 -0.173052 0)
(-0.104695 -0.436321 0)
(-0.133791 -0.335103 0)
(-0.275322 -0.256925 0)
(-0.228852 0.13804 0)
(-0.280139 0.269013 0)
(-0.24873 0.382479 0)
(-0.22562 0.355932 0)
(-0.244862 0.340472 0)
(-0.285913 0.358015 0)
(-0.296328 0.336641 0)
(-0.333129 0.283577 0)
(-0.288224 0.245291 0)
(-0.169649 0.146046 0)
(-0.205039 -0.0297494 0)
(0.057526 -0.177302 0)
(0.114354 -0.226553 0)
(0.134737 -0.350371 0)
(-0.0890104 -0.206882 0)
(-0.0878747 -0.378297 0)
(-0.108124 -0.261362 0)
(-0.170912 -0.385315 0)
(-0.121601 -0.336928 0)
(-0.106786 -0.323987 0)
(-0.193401 -0.423763 0)
(-0.169284 -0.297697 0)
(-0.291182 0.0122683 0)
(-0.367777 0.201096 0)
(-0.295385 0.326953 0)
(-0.243306 0.363166 0)
(-0.238321 0.362376 0)
(-0.245636 0.346784 0)
(-0.280776 0.389624 0)
(-0.220742 0.432188 0)
(-0.0912058 0.303482 0)
(-0.0973444 0.135096 0)
(0.0915557 0.0125396 0)
(0.153024 -0.0894967 0)
(0.321985 -0.199148 0)
(0.312038 -0.108208 0)
(0.318454 -0.281279 0)
(0.232211 -0.295381 0)
(0.249751 -0.339769 0)
(0.183129 -0.467207 0)
(0.117396 -0.236527 0)
(-0.0504152 -0.271262 0)
(-0.0737532 -0.301154 0)
(-0.0592811 -0.37187 0)
(-0.0615945 -0.281724 0)
(-0.296265 -0.148298 0)
(-0.338291 0.191296 0)
(-0.333079 0.379481 0)
(-0.280373 0.34353 0)
(-0.260748 0.349763 0)
(-0.214181 0.41025 0)
(-0.145779 0.392885 0)
(-0.132421 0.467381 0)
(-0.180971 0.208272 0)
(0.125886 0.0592114 0)
(0.144183 -0.101643 0)
(0.291531 -0.277117 0)
(0.410863 -0.32238 0)
(0.675547 -0.224341 0)
(0.719832 -0.00433162 0)
(0.492121 0.0540934 0)
(0.343722 -0.0857394 0)
(0.207695 -0.196194 0)
(0.264364 -0.386414 0)
(0.145951 -0.476657 0)
(0.142982 -0.144416 0)
(-0.11223 -0.22199 0)
(-0.217893 -0.0335828 0)
(-0.34216 -0.0141266 0)
(-0.32189 0.231772 0)
(-0.35473 0.320032 0)
(-0.384026 0.256195 0)
(-0.182627 0.351169 0)
(-0.146059 0.357701 0)
(-0.168698 0.332724 0)
(-0.0919011 0.291358 0)
(-0.0396636 0.0137494 0)
(0.133583 -0.0674221 0)
(0.219603 -0.260274 0)
(0.345263 -0.382198 0)
(0.479193 -0.325841 0)
(0.750201 -0.365099 0)
(0.848756 -0.176005 0)
(0.888504 -0.106927 0)
(0.91283 -0.0817449 0)
(0.794682 -0.0373592 0)
(0.624532 0.0611366 0)
(0.419606 -0.0964905 0)
(0.245616 -0.137201 0)
(0.0171417 -0.0088919 0)
(-0.309107 0.0791749 0)
(-0.370156 0.0749153 0)
(-0.280208 0.144503 0)
(-0.375627 0.103606 0)
(-0.353927 0.257786 0)
(-0.191205 0.304913 0)
(-0.15807 0.171816 0)
(-0.0932753 0.300228 0)
(0.0426914 0.290936 0)
(0.186781 0.0492358 0)
(0.209378 -0.237711 0)
(0.374562 -0.502464 0)
(0.528034 -0.570931 0)
(0.577314 -0.500322 0)
(0.728319 -0.470852 0)
(1.0456 -0.196679 0)
(1.17449 -0.141388 0)
(1.15166 -0.00468718 0)
(0.866435 0.153019 0)
(0.862172 0.190149 0)
(0.819924 0.0373317 0)
(0.568806 -0.0761932 0)
(0.01748 0.125551 0)
(-0.217306 0.0857771 0)
(-0.300781 0.203775 0)
(-0.34709 0.175916 0)
(-0.347552 0.167785 0)
(-0.242362 0.326592 0)
(-0.0968247 0.247251 0)
(-0.0715876 0.210238 0)
(-0.00564324 0.252696 0)
(0.185644 0.0805966 0)
(0.385475 -0.0711919 0)
(0.482152 -0.257599 0)
(0.595519 -0.525462 0)
(0.648699 -0.597998 0)
(0.661255 -0.566135 0)
(0.731595 -0.440097 0)
(0.823129 -0.356093 0)
(0.898736 -0.0538427 0)
(1.28519 0.165534 0)
(1.14159 0.283899 0)
(1.10217 0.166695 0)
(1.05814 0.182549 0)
(0.757762 0.221323 0)
(0.038398 0.201175 0)
(-0.161918 0.127144 0)
(-0.233499 0.173877 0)
(-0.234224 0.184934 0)
(-0.18924 0.266116 0)
(-0.200492 0.299295 0)
(-0.13306 0.120356 0)
(0.0650217 0.0626582 0)
(0.0929201 0.0399333 0)
(0.42404 -0.0802455 0)
(0.83899 -0.478998 0)
(0.760709 -0.576768 0)
(0.669874 -0.594912 0)
(0.670086 -0.600601 0)
(0.697538 -0.575026 0)
(0.693532 -0.490652 0)
(0.83539 -0.418782 0)
(0.882552 -0.0225817 0)
(1.04035 0.06439 0)
(1.03285 0.255945 0)
(1.11228 0.338948 0)
(1.29769 0.291796 0)
(1.11588 0.310884 0)
(0.0555784 0.243458 0)
(-0.103007 0.16874 0)
(-0.12282 0.216532 0)
(-0.0889414 0.145608 0)
(-0.128056 0.180667 0)
(-0.119848 0.190039 0)
(0.143818 0.0136168 0)
(0.280578 -0.0614547 0)
(0.400186 -0.235995 0)
(0.60545 -0.205838 0)
(0.779025 -0.507089 0)
(0.870566 -0.656452 0)
(0.776249 -0.645056 0)
(0.620991 -0.580676 0)
(0.628113 -0.560466 0)
(0.673492 -0.543429 0)
(0.839372 -0.330986 0)
(0.784385 -0.223797 0)
(0.663835 0.0397391 0)
(0.791179 0.190228 0)
(0.93232 0.483787 0)
(1.12666 0.422513 0)
(1.11481 0.402106 0)
(0.0508073 0.255476 0)
(-0.0391631 0.185169 0)
(-0.0281989 0.275223 0)
(0.00172943 0.160137 0)
(0.0752453 0.157517 0)
(0.116362 0.092651 0)
(0.314905 -0.13129 0)
(0.501168 -0.487025 0)
(0.583016 -0.535206 0)
(0.624669 -0.544517 0)
(0.718878 -0.538267 0)
(0.831473 -0.634978 0)
(0.760254 -0.717274 0)
(0.675519 -0.612395 0)
(0.581071 -0.538582 0)
(0.635904 -0.493898 0)
(0.755507 -0.51714 0)
(0.640454 -0.519265 0)
(0.602682 -0.332417 0)
(0.816536 0.0234208 0)
(0.764556 0.422308 0)
(0.772594 0.448424 0)
(0.833829 0.43219 0)
(0.0502297 0.245731 0)
(-0.0170972 0.204864 0)
(0.0192356 0.230225 0)
(0.0771686 0.262635 0)
(0.0794042 0.163753 0)
(0.086741 -0.0985698 0)
(0.305486 -0.379676 0)
(0.481671 -0.686488 0)
(0.457169 -0.625788 0)
(0.582433 -0.660495 0)
(0.645647 -0.484085 0)
(0.636737 -0.506214 0)
(0.514762 -0.550665 0)
(0.468568 -0.475755 0)
(0.485801 -0.503775 0)
(0.491424 -0.440186 0)
(0.469109 -0.514073 0)
(0.41308 -0.43546 0)
(0.573355 -0.206811 0)
(0.718296 0.092328 0)
(0.492383 0.296275 0)
(0.616085 0.525718 0)
(0.797617 0.542925 0)
(0.0569881 0.23384 0)
(-0.0215137 0.198333 0)
(0.0623076 0.185209 0)
(0.0826703 0.158331 0)
(0.0422818 0.0922474 0)
(0.231618 -0.0171462 0)
(0.13676 -0.452403 0)
(0.252345 -0.694925 0)
(0.236201 -0.690022 0)
(0.329707 -0.575379 0)
(0.593703 -0.426376 0)
(0.604716 -0.468097 0)
(0.468175 -0.499234 0)
(0.416086 -0.515495 0)
(0.451287 -0.581477 0)
(0.405015 -0.457054 0)
(0.372293 -0.425799 0)
(0.345582 -0.345392 0)
(0.367415 -0.201312 0)
(0.453332 -0.118445 0)
(0.442636 0.198199 0)
(0.513714 0.585466 0)
(0.551808 0.564967 0)
(0.0491429 0.225879 0)
(-0.0350298 0.185971 0)
(0.0378938 0.136756 0)
(0.00732264 0.0705716 0)
(0.024872 0.0408905 0)
(-0.0089296 -0.184001 0)
(-0.0488058 -0.507939 0)
(0.205339 -0.783958 0)
(0.230845 -0.904474 0)
(0.234896 -0.722218 0)
(0.240084 -0.458844 0)
(0.308399 -0.513313 0)
(0.309664 -0.507028 0)
(0.330285 -0.504564 0)
(0.392574 -0.470397 0)
(0.418608 -0.399026 0)
(0.383149 -0.394647 0)
(0.336291 -0.356737 0)
(0.347908 -0.300131 0)
(0.370008 -0.0872008 0)
(0.337439 0.18784 0)
(0.40597 0.546135 0)
(0.434061 0.534002 0)
(0.0350633 0.227392 0)
(-0.0557019 0.191342 0)
(0.0355429 0.161812 0)
(0.0653189 0.128422 0)
(-0.0309564 0.0931037 0)
(-0.0238118 -0.00654564 0)
(-0.122132 -0.397879 0)
(-0.0344193 -0.620974 0)
(0.135912 -0.936263 0)
(0.112812 -0.854746 0)
(0.250284 -0.667476 0)
(0.332606 -0.644899 0)
(0.358561 -0.573597 0)
(0.396922 -0.534381 0)
(0.42443 -0.374144 0)
(0.379804 -0.364994 0)
(0.374423 -0.352869 0)
(0.348968 -0.323921 0)
(0.357 -0.248646 0)
(0.377071 -0.0618317 0)
(0.220627 0.165704 0)
(0.221921 0.404604 0)
(0.221819 0.611053 0)
(0.027582 0.250471 0)
(-0.0356906 0.188542 0)
(0.0742988 0.228002 0)
(0.0394999 0.147137 0)
(0.0162209 0.121018 0)
(0.0106968 -0.0102476 0)
(0.062611 -0.350735 0)
(-0.00481845 -0.557231 0)
(0.0814366 -0.92204 0)
(0.0602467 -0.738159 0)
(0.341101 -0.652672 0)
(0.244517 -0.558363 0)
(0.197376 -0.578023 0)
(0.270194 -0.565759 0)
(0.308485 -0.382855 0)
(0.315709 -0.338509 0)
(0.359328 -0.348301 0)
(0.362552 -0.328846 0)
(0.345925 -0.237789 0)
(0.282066 -0.13909 0)
(0.1971 0.230772 0)
(0.277678 0.442298 0)
(0.292631 0.783711 0)
(0.0393702 0.246322 0)
(-0.0327435 0.134869 0)
(0.109395 0.146664 0)
(0.100258 0.12611 0)
(0.0846391 0.0936792 0)
(0.259766 -0.0443485 0)
(0.272355 -0.415243 0)
(0.21048 -0.628956 0)
(0.128671 -0.811254 0)
(0.0898339 -0.697263 0)
(0.131895 -0.529267 0)
(0.146715 -0.642364 0)
(0.190003 -0.6504 0)
(0.244412 -0.587617 0)
(0.225313 -0.500434 0)
(0.118514 -0.472732 0)
(0.191742 -0.383468 0)
(0.273388 -0.287935 0)
(0.236671 -0.135649 0)
(0.166905 0.0611729 0)
(0.0863281 0.519376 0)
(0.151876 0.681689 0)
(0.00634209 0.760688 0)
(0.0331214 0.242531 0)
(-0.0020886 0.115332 0)
(0.159007 0.152113 0)
(0.237155 0.0726705 0)
(0.268698 -0.0290981 0)
(0.184456 -0.204566 0)
(0.407335 -0.362185 0)
(0.345162 -0.669395 0)
(0.211033 -0.777091 0)
(0.0888852 -0.730568 0)
(0.0951178 -0.559486 0)
(0.184431 -0.687488 0)
(0.28159 -0.661259 0)
(0.043484 -0.842543 0)
(-0.0923967 -0.759918 0)
(0.0699977 -0.528849 0)
(0.0959209 -0.432099 0)
(0.0521356 -0.334778 0)
(0.0491745 -0.239868 0)
(0.00851292 0.0378245 0)
(0.0423105 0.399105 0)
(-0.106746 0.578791 0)
(-0.102952 0.440768 0)
(0.0458448 0.219791 0)
(0.0296831 0.146837 0)
(0.0904074 0.0783719 0)
(0.211188 0.0784724 0)
(0.26678 -0.076669 0)
(0.3473 -0.195544 0)
(0.395319 -0.287057 0)
(0.351067 -0.691005 0)
(0.370396 -0.73167 0)
(0.177121 -0.702108 0)
(0.089732 -0.505957 0)
(0.111527 -0.652724 0)
(0.0380081 -0.683241 0)
(-0.0226639 -0.966787 0)
(0.0709851 -0.492886 0)
(0.0495523 -0.310894 0)
(-0.110577 -0.35528 0)
(-0.216225 -0.261788 0)
(-0.225131 -0.027738 0)
(-0.230532 0.03925 0)
(-0.224136 0.202928 0)
(-0.153346 0.277939 0)
(-0.0796078 0.431023 0)
(0.030834 0.161056 0)
(0.0471831 0.0375765 0)
(0.227519 -0.204932 0)
(0.255948 -0.129625 0)
(0.25193 -0.175507 0)
(0.41987 -0.289095 0)
(0.359269 -0.396995 0)
(0.368667 -0.499936 0)
(0.397853 -0.657048 0)
(0.0652746 -0.501285 0)
(0.0212586 -0.386842 0)
(-0.00333488 -0.649859 0)
(-0.134762 -0.605712 0)
(-0.0880986 -0.70147 0)
(0.166322 -0.331649 0)
(-0.0962092 -0.326773 0)
(-0.14595 -0.268816 0)
(-0.256049 -0.26402 0)
(-0.41048 -0.104296 0)
(-0.369976 0.0923037 0)
(-0.212806 0.270041 0)
(-0.131585 0.302179 0)
(0.0377843 0.397089 0)
(0.0694596 0.132242 0)
(0.0661322 0.025293 0)
(0.130002 -0.155231 0)
(0.165561 -0.284438 0)
(0.227825 -0.291849 0)
(0.413701 -0.329864 0)
(0.404757 -0.493055 0)
(0.37544 -0.46654 0)
(0.21837 -0.632345 0)
(0.199836 -0.547245 0)
(-0.00707746 -0.398848 0)
(-0.0567823 -0.526874 0)
(-0.200165 -0.553904 0)
(-0.263846 -0.633717 0)
(-0.0916678 -0.490042 0)
(-0.133206 -0.243887 0)
(-0.164227 -0.317774 0)
(-0.314211 -0.288991 0)
(-0.208767 -0.179944 0)
(-0.229765 0.141783 0)
(-0.153769 0.22197 0)
(-0.162388 0.288561 0)
(-0.0144566 0.330943 0)
(0.0837501 0.0262134 0)
(0.132216 -0.0731448 0)
(0.144251 -0.121614 0)
(0.113982 -0.284366 0)
(0.200117 -0.308906 0)
(0.268347 -0.421083 0)
(0.192589 -0.421885 0)
(0.244866 -0.611131 0)
(0.193816 -0.496938 0)
(0.110633 -0.228146 0)
(-0.256999 -0.114067 0)
(-0.195839 -0.543199 0)
(-0.341731 -0.718788 0)
(-0.381931 -0.761337 0)
(-0.19283 -0.789305 0)
(-0.101013 -0.187904 0)
(-0.184235 -0.330501 0)
(-0.0700035 -0.193309 0)
(-0.0763539 -0.0583312 0)
(-0.0963966 0.0392999 0)
(-0.0684996 0.0498248 0)
(-0.126936 0.181202 0)
(-0.0556769 0.270621 0)
(0.110413 -0.0889722 0)
(0.18827 -0.0676811 0)
(0.0749657 -0.169834 0)
(0.104845 -0.315211 0)
(0.18046 -0.501347 0)
(0.140021 -0.648641 0)
(0.14206 -0.494972 0)
(0.0773843 -0.443287 0)
(-0.118943 -0.0561251 0)
(-0.294547 -0.0108298 0)
(-0.318422 -0.165187 0)
(-0.295644 -0.565191 0)
(-0.361209 -0.747718 0)
(-0.365009 -0.798587 0)
(-0.267121 -0.84196 0)
(0.129486 -0.284944 0)
(-0.157719 -0.220405 0)
(-0.0240241 -0.14797 0)
(-0.050472 -0.00429723 0)
(-0.0663179 0.0501428 0)
(-0.0649291 0.0837971 0)
(-0.0358451 0.11103 0)
(-0.0146644 0.19862 0)
(0.0108538 -0.1282 0)
(0.0991946 -0.0427671 0)
(0.0878414 -0.135456 0)
(0.0254583 -0.284414 0)
(0.15577 -0.549753 0)
(0.272636 -0.56523 0)
(0.157263 -0.420856 0)
(-0.152532 -0.167134 0)
(-0.241459 -0.0444229 0)
(-0.315157 -0.0960086 0)
(-0.327559 -0.375575 0)
(-0.23552 -0.511379 0)
(-0.321441 -0.674006 0)
(-0.213702 -0.774997 0)
(-0.268743 -0.804561 0)
(-0.143097 -0.540758 0)
(-0.0118382 -0.270273 0)
(-0.0417083 -0.183145 0)
(0.000259263 0.0157562 0)
(-0.0316655 0.0245657 0)
(-0.0311906 0.0781942 0)
(-0.0795325 0.134259 0)
(0.00643888 0.229538 0)
(-0.0512698 -0.22964 0)
(0.0174356 -0.0188693 0)
(-0.0294789 -0.213095 0)
(0.0876244 -0.285423 0)
(0.148009 -0.457538 0)
(0.15147 -0.50148 0)
(0.142271 -0.398775 0)
(0.10202 0.0431871 0)
(-0.179912 0.245931 0)
(-0.390453 0.123297 0)
(-0.104433 -0.302674 0)
(-0.136728 -0.682949 0)
(-0.194591 -0.772861 0)
(-0.0560428 -0.822811 0)
(-0.158484 -0.904968 0)
(-0.164469 -0.780068 0)
(0.0755076 -0.370679 0)
(-0.0512916 -0.157118 0)
(-0.0147565 0.0119659 0)
(-0.0608449 0.0456867 0)
(-0.00356418 0.108224 0)
(0.0412343 0.11543 0)
(0.0779593 0.199247 0)
(-0.0366516 -0.298272 0)
(0.028728 -0.0777776 0)
(0.0499986 -0.275288 0)
(0.0769156 -0.534781 0)
(0.035935 -0.49971 0)
(0.152292 -0.551605 0)
(0.123097 -0.425698 0)
(0.06026 0.121058 0)
(-0.0115917 0.238304 0)
(-0.153731 -0.00689202 0)
(-0.0957551 -0.315871 0)
(-0.0327204 -0.626703 0)
(0.0806797 -0.928715 0)
(0.13001 -0.827784 0)
(-0.0177943 -0.820366 0)
(-0.022101 -0.599545 0)
(0.173392 -0.335893 0)
(-0.0261278 -0.116943 0)
(0.0224439 0.0517559 0)
(-0.0274591 0.0502936 0)
(-0.0259067 0.106189 0)
(0.0135292 0.0841572 0)
(0.047114 0.0742893 0)
(-0.0525716 -0.24841 0)
(0.0219511 -0.156712 0)
(0.0430497 -0.374669 0)
(0.142257 -0.671107 0)
(0.0782631 -0.633064 0)
(-0.113795 -0.525283 0)
(0.0243785 -0.182318 0)
(-0.0740335 0.351303 0)
(-0.0155365 0.315627 0)
(0.126519 0.0952914 0)
(0.115677 -0.19249 0)
(-0.0461699 -0.475547 0)
(0.19267 -0.716965 0)
(0.237975 -0.74848 0)
(0.112718 -0.805595 0)
(0.019811 -0.495169 0)
(0.011961 -0.345961 0)
(-0.182807 -0.0681796 0)
(-0.0797113 0.0150413 0)
(-0.062652 0.0353629 0)
(-0.0220256 0.048697 0)
(-0.0041125 0.0837568 0)
(0.0106178 0.0743687 0)
(-0.0638439 -0.231547 0)
(0.0255201 -0.273886 0)
(0.0640854 -0.514765 0)
(0.113258 -0.665351 0)
(0.0593916 -0.80008 0)
(0.010316 -0.606776 0)
(-0.00336551 -0.212665 0)
(-0.0821542 0.315698 0)
(0.0452847 0.302103 0)
(0.0267042 -0.0596937 0)
(0.179848 -0.21566 0)
(0.159724 -0.548385 0)
(0.298106 -0.619261 0)
(0.246464 -0.692426 0)
(0.114947 -0.690767 0)
(-0.00869632 -0.505376 0)
(0.00436556 -0.332337 0)
(0.0231695 -0.158011 0)
(-0.102815 0.000334973 0)
(-0.051479 0.0173737 0)
(-0.0438025 0.0153189 0)
(-0.00837903 0.0539237 0)
(0.0471792 0.0386802 0)
(-0.0839393 -0.172798 0)
(0.0294716 -0.419703 0)
(0.0251955 -0.555304 0)
(0.105924 -0.65526 0)
(-0.0170132 -0.545815 0)
(-0.120328 -0.321628 0)
(-0.0926615 -0.0829423 0)
(-0.136465 0.249274 0)
(0.0699897 0.144007 0)
(0.0966127 -0.206098 0)
(0.218984 -0.276353 0)
(0.232574 -0.567056 0)
(0.347321 -0.647683 0)
(0.247508 -0.776447 0)
(0.117192 -0.643966 0)
(-0.0984861 -0.345263 0)
(-0.0694379 -0.146452 0)
(-0.158833 -0.0588661 0)
(-0.129377 0.00160098 0)
(-0.109271 0.015567 0)
(-0.0370666 0.0284309 0)
(-0.025857 -0.00177509 0)
(0.0469481 0.0116964 0)
(-0.0728725 -0.119633 0)
(0.0326329 -0.486327 0)
(-0.0105365 -0.5514 0)
(0.018666 -0.616918 0)
(-0.113144 -0.476567 0)
(-0.130588 -0.217972 0)
(-0.194586 -0.125256 0)
(-0.129324 0.00747625 0)
(0.0219391 -0.163696 0)
(0.284903 -0.345176 0)
(0.158573 -0.440242 0)
(0.240198 -0.569183 0)
(0.258344 -0.600391 0)
(0.160907 -0.635077 0)
(0.153582 -0.659564 0)
(-0.256588 -0.327521 0)
(-0.151696 -0.183627 0)
(-0.15416 -0.0802077 0)
(-0.1347 -0.101036 0)
(-0.080673 -0.0107464 0)
(-0.0880692 -0.0441672 0)
(-0.0257387 -0.0368943 0)
(0.062973 -0.0400195 0)
(-0.0792755 -0.0963743 0)
(0.0274967 -0.529858 0)
(-0.0557619 -0.559562 0)
(-0.0840856 -0.433321 0)
(-0.171069 -0.281078 0)
(-0.216065 -0.248018 0)
(-0.267646 -0.217954 0)
(-0.156063 -0.165345 0)
(0.0495474 -0.304369 0)
(0.163369 -0.362988 0)
(0.213396 -0.603961 0)
(0.318146 -0.564398 0)
(0.162625 -0.684436 0)
(-0.126976 -0.41394 0)
(-0.205108 -0.591697 0)
(-0.173692 -0.260248 0)
(-0.208958 -0.11828 0)
(-0.156874 -0.0951608 0)
(-0.108522 -0.085448 0)
(-0.0542335 -0.0768878 0)
(-0.0511818 -0.0814892 0)
(0.00200869 -0.0806956 0)
(0.0303653 -0.067303 0)
(-0.0563157 -0.0382404 0)
(-0.0133263 -0.522613 0)
(-0.141837 -0.422198 0)
(-0.19089 -0.281311 0)
(-0.235874 -0.264588 0)
(-0.220164 -0.314409 0)
(-0.221655 -0.273576 0)
(-0.108511 -0.282022 0)
(0.0862944 -0.306504 0)
(-0.0613522 -0.489101 0)
(0.0139559 -0.536075 0)
(0.098376 -0.476502 0)
(0.0421786 -0.740165 0)
(-0.12879 -0.494069 0)
(-0.305693 -0.427246 0)
(-0.201028 -0.257177 0)
(-0.14024 -0.200932 0)
(-0.129681 -0.189393 0)
(-0.10667 -0.165248 0)
(-0.0918363 -0.124629 0)
(-0.0512744 -0.107914 0)
(0.00185831 -0.120236 0)
(0.00378045 -0.0779831 0)
(-0.0939163 -0.0210517 0)
(-0.0745719 -0.294341 0)
(-0.138819 -0.228333 0)
(-0.218031 -0.220264 0)
(-0.254422 -0.228883 0)
(-0.203767 -0.237016 0)
(-0.195696 -0.274838 0)
(-0.191682 -0.31486 0)
(-0.175746 -0.37809 0)
(-0.087797 -0.520017 0)
(0.0750051 -0.360775 0)
(-0.0951663 -0.494168 0)
(-0.224629 -0.554164 0)
(-0.208089 -0.484433 0)
(-0.142669 -0.478494 0)
(-0.17422 -0.325158 0)
(-0.165713 -0.260379 0)
(-0.112587 -0.213853 0)
(-0.0576275 -0.202621 0)
(-0.0514339 -0.141174 0)
(-0.0150245 -0.13292 0)
(0.00501893 -0.143851 0)
(0.0275397 -0.129265 0)
(-0.0525911 0.290273 0)