/*--------------------------------*- C++ -*----------------------------------*\
| =========                 |                                                 |
| \\      /  F ield         | foam-extend: Open Source CFD                    |
|  \\    /   O peration     | Version:     4.1                                |
|   \\  /    A nd           | Web:         http://www.foam-extend.org         |
|    \\/     M anipulation  |                                                 |
\*---------------------------------------------------------------------------*/
FoamFile
{
    version     2.0;
    format      ascii;
    class       volVectorField;
    location    "1";
    object      U_0;
}
// * * * * * * * * * * * * * * * * * * * * * * * * * * * * * * * * * * * * * //

dimensions      [0 1 -1 0 0 0 0];

internalField   nonuniform List<vector> 
2268
(
(0.0149654 -0.00253933 0)
(0.0212807 0.00358376 0)
(0.048364 -0.0137009 0)
(0.0430096 -0.015374 0)
(0.0845357 0.002789 0)
(0.13396 -0.00557215 0)
(0.127968 -0.000265758 0)
(0.156785 -0.00361349 0)
(0.168474 0.0264572 0)
(0.174211 0.00271436 0)
(0.262679 0.0071165 0)
(0.242626 -0.0285946 0)
(0.215627 -0.00452172 0)
(0.237105 -0.00125824 0)
(0.241097 -0.00768063 0)
(0.233033 0.00458569 0)
(0.228926 0.0144528 0)
(0.206168 0.00365995 0)
(0.205158 0.0105518 0)
(0.179142 -0.053438 0)
(0.107306 0.0104833 0)
(0.0651913 -0.0190273 0)
(0.0462068 0.0235655 0)
(0.0379455 -0.0145163 0)
(0.0341876 -0.00356676 0)
(0.0505845 -0.0124142 0)
(0.0511397 0.00102363 0)
(0.0927007 0.00160047 0)
(0.134853 -0.00240411 0)
(0.134741 -0.00634403 0)
(0.174508 -0.00731954 0)
(0.171869 -0.0367981 0)
(0.182495 -0.0464825 0)
(0.235136 -0.0275445 0)
(0.228241 -0.0522401 0)
(0.210866 -0.00988409 0)
(0.228817 -0.0197452 0)
(0.236416 0.0121815 0)
(0.232486 -0.000761715 0)
(0.225352 0.0103211 0)
(0.195499 0.028641 0)
(0.188222 0.0885437 0)
(0.194402 0.0183623 0)
(0.1381 0.0348583 0)
(0.0352351 0.0505459 0)
(0.0636535 0.0276669 0)
(0.0282871 -0.0194078 0)
(0.0297269 -0.0185584 0)
(0.0589739 -0.0226111 0)
(0.0560228 -0.00415509 0)
(0.0870465 -0.0183771 0)
(0.136903 -0.0325648 0)
(0.133247 -0.0102643 0)
(0.14286 -0.0103238 0)
(0.152344 -0.0412293 0)
(0.193484 -0.0589742 0)
(0.252462 -0.0101296 0)
(0.221563 -0.0814005 0)
(0.187511 0.00132636 0)
(0.203196 -0.00954835 0)
(0.206599 -0.014478 0)
(0.192096 0.0235008 0)
(0.230995 0.017191 0)
(0.211059 -0.00127565 0)
(0.171325 0.0866433 0)
(0.140354 0.0419957 0)
(0.128549 0.0738862 0)
(0.0658885 0.060789 0)
(0.0493814 0.079179 0)
(0.0139516 -0.0291365 0)
(0.0226619 -0.0330055 0)
(0.0613676 -0.0174495 0)
(0.0614034 -0.0350895 0)
(0.091368 0.0147046 0)
(0.136095 -0.0561623 0)
(0.141557 -0.0124178 0)
(0.150993 -0.0446646 0)
(0.147079 -0.024075 0)
(0.182044 -0.0145213 0)
(0.187009 -0.0516696 0)
(0.199898 -0.0485083 0)
(0.189057 -0.0213568 0)
(0.171468 -0.0296045 0)
(0.214079 0.0399142 0)
(0.199606 0.0584109 0)
(0.15016 0.0287772 0)
(0.168333 -0.0291522 0)
(0.153742 0.0472046 0)
(0.131542 0.0338668 0)
(0.123031 0.0900443 0)
(0.0486427 0.134739 0)
(0.0702523 0.0699421 0)
(0.00650412 -0.0363985 0)
(0.0246852 -0.0172121 0)
(0.0619726 -0.0447635 0)
(0.0773308 -0.044275 0)
(0.0859943 -0.0105102 0)
(0.116564 -0.0382863 0)
(0.130143 -0.0399722 0)
(0.13115 -0.0458802 0)
(0.147092 -0.0658817 0)
(0.15047 -0.00405146 0)
(0.177891 -0.0770383 0)
(0.192515 -0.067472 0)
(0.158721 -0.0982745 0)
(0.204717 -0.00999221 0)
(0.237829 0.0353416 0)
(0.178515 0.00737466 0)
(0.159061 0.0127674 0)
(0.173829 0.0562207 0)
(0.111502 0.0342877 0)
(0.113565 0.0482929 0)
(0.135138 0.0518967 0)
(0.0321349 0.125253 0)
(0.0142257 0.14912 0)
(0.0138764 -0.0444667 0)
(0.0144464 -0.0516753 0)
(0.0447415 -0.0333333 0)
(0.0614077 -0.040228 0)
(0.0924395 -0.0295602 0)
(0.122961 -0.0326867 0)
(0.114291 -0.0453347 0)
(0.0991081 -0.0377695 0)
(0.134998 -0.0427649 0)
(0.133292 -0.0409279 0)
(0.134961 -0.0628519 0)
(0.179625 -0.0780731 0)
(0.207177 -0.0481454 0)
(0.197713 0.00238796 0)
(0.202789 -0.00230024 0)
(0.208999 0.0477878 0)
(0.204367 0.0458728 0)
(0.198414 0.0604038 0)
(0.1299 0.0647045 0)
(0.0771084 0.0688257 0)
(0.102285 0.0792651 0)
(0.0657944 0.0989869 0)
(0.0643117 0.205707 0)
(0.00106901 -0.0497064 0)
(0.0174069 -0.0543904 0)
(0.051482 -0.0812542 0)
(0.0498564 -0.104751 0)
(0.0439359 -0.0249793 0)
(0.0635179 -0.0348466 0)
(0.0802274 -0.0357786 0)
(0.0904677 -0.0577678 0)
(0.125474 -0.0379008 0)
(0.120606 -0.0371735 0)
(0.151827 -0.0375297 0)
(0.206208 0.0136592 0)
(0.138434 -0.0405904 0)
(0.180737 -0.0710177 0)
(0.231534 -0.00679578 0)
(0.194613 0.0728769 0)
(0.193669 0.0945666 0)
(0.225735 0.0560633 0)
(0.173392 0.0871544 0)
(0.0941913 0.178678 0)
(0.116016 0.0846235 0)
(0.081626 0.11387 0)
(0.0922301 0.323284 0)
(0.00730606 -0.0493605 0)
(-0.0153021 -0.0234402 0)
(-0.00532438 -0.0677555 0)
(0.0377995 -0.0825702 0)
(0.0596631 -0.0772654 0)
(0.0605758 -0.0597103 0)
(0.0761892 -0.0587026 0)
(0.0807606 -0.0627785 0)
(0.135668 -0.0449559 0)
(0.119022 -0.0691406 0)
(0.145124 -0.0240934 0)
(0.151262 -0.0929247 0)
(0.102007 -0.0964632 0)
(0.120002 -0.0118359 0)
(0.151186 -0.0724886 0)
(0.230234 0.000306882 0)
(0.20803 0.134567 0)
(0.253934 0.108354 0)
(0.262448 0.0471537 0)
(0.149402 0.17254 0)
(0.105735 0.0308608 0)
(0.153121 0.0723431 0)
(0.139449 0.314922 0)
(-0.618169 0.124929 0)
(-0.673322 0.113354 0)
(-0.759677 -0.019645 0)
(-0.721284 -0.109865 0)
(-0.523615 -0.0675279 0)
(-0.455961 -0.0124754 0)
(-0.423426 -0.0231329 0)
(-0.427242 -0.0183536 0)
(-0.424126 -0.0168891 0)
(-0.438101 -0.010469 0)
(-0.433257 -0.0134785 0)
(-0.395475 -0.00398941 0)
(-0.389182 0.00654669 0)
(-0.355891 -0.0203623 0)
(-0.343877 -0.0334938 0)
(-0.399317 -0.0246697 0)
(-0.276223 0.0062536 0)
(-0.180372 -0.0673201 0)
(-0.0591424 -0.0173731 0)
(-0.548209 0.170613 0)
(-0.542009 0.198128 0)
(-0.533119 0.0337022 0)
(-0.544536 -0.0675707 0)
(-0.263088 -0.0938558 0)
(-0.0669737 -0.0332136 0)
(-0.0857238 0.0171946 0)
(-0.142829 0.0183177 0)
(-0.169389 0.0314261 0)
(-0.242784 0.0237723 0)
(-0.248084 -0.0049026 0)
(-0.223097 -0.0166203 0)
(-0.229387 -0.0287372 0)
(-0.284368 -0.0273566 0)
(-0.249484 -0.107393 0)
(-0.360513 0.00566016 0)
(-0.266604 0.0333731 0)
(-0.156446 -0.108301 0)
(-0.0185735 -0.0868762 0)
(-0.478819 0.335184 0)
(-0.432084 0.350397 0)
(-0.415347 0.0441746 0)
(-0.432748 -0.109592 0)
(-0.266503 -0.264816 0)
(0.104735 -0.0914523 0)
(0.151599 0.0131965 0)
(0.0582066 0.0130629 0)
(0.134304 0.0370195 0)
(-0.00510475 0.0271863 0)
(-0.0907732 -0.0307929 0)
(-0.106755 -0.0559275 0)
(-0.0898626 -0.0573217 0)
(-0.208357 -0.0190681 0)
(-0.177165 -0.0728409 0)
(-0.214872 -0.0213666 0)
(-0.202169 -0.0388095 0)
(-0.0681778 -0.0795706 0)
(0.0382394 -0.0969621 0)
(-0.403038 0.371202 0)
(-0.241598 0.341532 0)
(-0.238604 -0.00414394 0)
(-0.279061 -0.367501 0)
(-0.224997 -0.542941 0)
(0.138156 -0.225158 0)
(0.212228 0.0861116 0)
(0.192355 0.0550844 0)
(0.306578 0.000868653 0)
(0.152277 0.115147 0)
(0.0375413 0.0641535 0)
(0.0330283 -0.0213155 0)
(0.0124774 -0.030048 0)
(-0.0249648 -0.0356524 0)
(-0.0613714 -0.00933005 0)
(-0.0553791 -0.0498351 0)
(0.00281415 -0.0366783 0)
(0.0466419 -0.0682082 0)
(0.0568957 -0.0991077 0)
(-0.297508 0.444893 0)
(-0.107845 0.435151 0)
(-0.161137 0.057853 0)
(-0.200255 -0.43264 0)
(-0.0425579 -0.527361 0)
(0.166602 -0.290037 0)
(0.385303 -0.00230452 0)
(0.312945 0.130923 0)
(0.361672 0.0689561 0)
(0.352718 0.0589797 0)
(0.265901 0.0580374 0)
(0.16772 -0.000402739 0)
(0.141229 -0.0152318 0)
(0.0219546 0.00442113 0)
(-0.00974099 -0.0274677 0)
(-0.0300055 -0.0361964 0)
(0.0400935 -0.052923 0)
(0.0772059 -0.0685429 0)
(0.0716068 -0.0781874 0)
(-0.219278 0.456048 0)
(0.0435386 0.373751 0)
(-0.0630828 0.022506 0)
(-0.0712797 -0.456555 0)
(0.0477572 -0.40413 0)
(0.238271 -0.297876 0)
(0.461271 -0.169597 0)
(0.438578 0.0664347 0)
(0.516909 0.105894 0)
(0.539682 0.0632507 0)
(0.48594 0.096249 0)
(0.292857 0.168672 0)
(0.240761 0.0439381 0)
(0.102683 -0.00453833 0)
(0.0450979 -0.00788804 0)
(-0.0117152 -0.0471198 0)
(0.0429818 -0.0877726 0)
(0.0634866 -0.051594 0)
(0.0567747 -0.0695751 0)
(-0.14314 0.475094 0)
(0.212995 0.422076 0)
(0.103628 0.112813 0)
(0.111276 -0.543297 0)
(0.187234 -0.472664 0)
(0.275355 -0.342383 0)
(0.432171 -0.165112 0)
(0.416264 0.0234096 0)
(0.472135 0.116095 0)
(0.538251 0.0671441 0)
(0.540412 0.133797 0)
(0.439167 0.163892 0)
(0.312313 0.124345 0)
(0.187743 0.0738287 0)
(0.120285 -0.00467202 0)
(0.0247178 -0.038869 0)
(0.0823851 -0.0899806 0)
(0.0782638 -0.0409883 0)
(0.0570735 -0.0511652 0)
(-0.0843372 0.434922 0)
(0.363814 0.339081 0)
(0.201931 0.0380182 0)
(0.302932 -0.311893 0)
(0.298257 -0.436152 0)
(0.308929 -0.374857 0)
(0.409898 -0.159811 0)
(0.404621 -0.102568 0)
(0.392162 0.0233832 0)
(0.500681 0.0665095 0)
(0.500711 0.155354 0)
(0.380096 0.139354 0)
(0.326887 0.142057 0)
(0.244044 0.124805 0)
(0.181254 0.0298766 0)
(0.127726 -0.0567105 0)
(0.132569 -0.119279 0)
(0.131242 -0.0509511 0)
(0.0806605 -0.0133817 0)
(0.00276198 -0.0453916 0)
(0.0147351 -0.0582161 0)
(0.0134614 -0.0343116 0)
(0.0203639 -0.027273 0)
(0.0281461 -0.0777006 0)
(0.0661551 -0.0792652 0)
(0.0920337 -0.074764 0)
(0.088012 -0.103324 0)
(0.0543698 -0.0758877 0)
(0.0764683 -0.127876 0)
(0.0654932 -0.0120413 0)
(-0.0133512 -0.122253 0)
(-0.00137086 -0.057534 0)
(-0.0164716 -0.162541 0)
(0.0333728 0.00379724 0)
(0.124234 -0.0512965 0)
(0.181314 0.0535915 0)
(0.238312 0.156185 0)
(0.286435 0.12617 0)
(0.218384 0.0714701 0)
(0.209663 0.107102 0)
(0.304536 0.081757 0)
(0.268608 0.16248 0)
(-0.0126003 -0.0689621 0)
(-0.00160511 -0.0752791 0)
(0.0650437 -0.0785253 0)
(0.0844101 -0.0930961 0)
(0.068034 -0.0743041 0)
(0.0868804 -0.0632157 0)
(0.0105175 -0.0772726 0)
(0.0033124 -0.114341 0)
(-0.0819214 -0.0113278 0)
(-0.15913 0.0492114 0)
(-0.209651 0.0749853 0)
(-0.293152 -0.0429849 0)
(-0.258526 -0.0674973 0)
(-0.240356 -0.148793 0)
(-0.165176 -0.195185 0)
(-0.0656506 -0.148261 0)
(-0.0669746 -0.0447536 0)
(0.219254 0.10579 0)
(0.23973 0.195022 0)
(0.287571 0.150616 0)
(0.333407 0.116325 0)
(0.304802 0.057229 0)
(0.343275 0.0938332 0)
(0.0156466 -0.121793 0)
(0.0558272 -0.06414 0)
(0.0912453 -0.056138 0)
(0.0955135 -0.086687 0)
(0.101903 -0.0773649 0)
(0.0740305 -0.0893812 0)
(-0.0608672 -0.0388212 0)
(-0.0932736 0.0948494 0)
(-0.151101 0.156262 0)
(-0.198362 0.10986 0)
(-0.367489 0.0750799 0)
(-0.373668 0.0321014 0)
(-0.28667 -0.0537233 0)
(-0.344298 -0.124607 0)
(-0.348662 -0.155813 0)
(-0.3309 -0.150586 0)
(-0.309913 -0.204782 0)
(-0.105492 -0.0618036 0)
(-0.0285632 -0.0318801 0)
(0.163252 0.0882748 0)
(0.140446 -0.0730469 0)
(0.272462 0.0212077 0)
(0.545665 0.178546 0)
(0.143008 -0.209686 0)
(0.183509 -0.170896 0)
(0.156136 -0.11609 0)
(0.144868 -0.0102962 0)
(0.104656 0.00340807 0)
(0.0443455 0.0152469 0)
(-0.0311117 0.0813944 0)
(-0.180251 0.198472 0)
(-0.211188 0.203954 0)
(-0.187682 0.128689 0)
(-0.145513 0.0373769 0)
(-0.271316 0.143772 0)
(-0.270183 -0.0571915 0)
(-0.213873 -0.109761 0)
(-0.385925 -0.193009 0)
(-0.462086 -0.255492 0)
(-0.473083 -0.273916 0)
(-0.380487 -0.187441 0)
(-0.305841 -0.08748 0)
(-0.124375 -0.0320755 0)
(-0.0429772 -0.120944 0)
(0.206139 -0.00508278 0)
(0.333431 -0.00650086 0)
(0.132729 -0.281344 0)
(0.269695 -0.270485 0)
(0.294985 -0.176021 0)
(0.285496 -0.0612256 0)
(0.222267 0.0216188 0)
(0.14677 0.141138 0)
(-0.0416884 0.193203 0)
(-0.13488 0.240394 0)
(-0.0837776 0.212001 0)
(-0.102694 0.18749 0)
(-0.0685722 0.07095 0)
(-0.137003 0.0460486 0)
(-0.217796 0.139864 0)
(-0.177045 0.0196479 0)
(-0.498715 -0.101507 0)
(-0.605797 -0.206024 0)
(-0.504169 -0.226533 0)
(-0.472929 -0.218213 0)
(-0.533937 -0.265529 0)
(-0.535903 -0.297426 0)
(-0.389125 -0.267455 0)
(-0.296748 -0.0842438 0)
(-0.173587 -0.0439561 0)
(0.0385366 -0.426004 0)
(0.181124 -0.296529 0)
(0.174565 -0.141405 0)
(0.327817 0.0908744 0)
(0.205608 0.136383 0)
(0.0661156 0.187346 0)
(-0.062608 0.229018 0)
(-0.0735331 0.236422 0)
(-0.0395573 0.12452 0)
(-0.188268 0.132515 0)
(-0.256824 0.175926 0)
(-0.345823 0.19623 0)
(-0.45605 0.142731 0)
(-0.461635 0.0637615 0)
(-0.544642 -0.0680135 0)
(-0.594769 -0.066881 0)
(-0.530213 -0.0756634 0)
(-0.534905 -0.255222 0)
(-0.702891 -0.330393 0)
(-0.703429 -0.383471 0)
(-0.463215 -0.336951 0)
(-0.444947 -0.254572 0)
(-0.433119 -0.198749 0)
(0.0271917 -0.560517 0)
(0.118046 -0.529663 0)
(0.0101111 -0.18731 0)
(0.197596 0.188204 0)
(0.127241 0.184616 0)
(0.0158087 0.272072 0)
(-0.125947 0.329826 0)
(-0.11578 0.227402 0)
(-0.182892 0.162694 0)
(-0.36726 0.28119 0)
(-0.408187 0.361381 0)
(-0.502515 0.239772 0)
(-0.480895 0.151685 0)
(-0.484129 0.0648973 0)
(-0.529932 -0.0622542 0)
(-0.479288 -0.128474 0)
(-0.523484 -0.202387 0)
(-0.509169 -0.322078 0)
(-0.479258 -0.330782 0)
(-0.558185 -0.212263 0)
(-0.512272 -0.285111 0)
(-0.417406 -0.362443 0)
(-0.343261 -0.333548 0)
(-0.0778956 -0.586362 0)
(-0.00862594 -0.555144 0)
(0.10413 -0.357499 0)
(-0.118583 0.194816 0)
(-0.0454818 0.33027 0)
(-0.14208 0.380834 0)
(-0.164147 0.351307 0)
(-0.162431 0.29522 0)
(-0.286606 0.346479 0)
(-0.312189 0.364288 0)
(-0.415167 0.372394 0)
(-0.474017 0.317215 0)
(-0.398056 0.291239 0)
(-0.42361 0.118798 0)
(-0.318542 -0.0291968 0)
(-0.348134 -0.140132 0)
(-0.377967 -0.256792 0)
(-0.376193 -0.309478 0)
(-0.207125 -0.330848 0)
(-0.240033 -0.265705 0)
(-0.294502 -0.223639 0)
(-0.322683 -0.203827 0)
(-0.279761 -0.172334 0)
(-0.104579 -0.433943 0)
(-0.13669 -0.333085 0)
(-0.276685 -0.256757 0)
(-0.23166 0.140631 0)
(-0.283246 0.27289 0)
(-0.251461 0.388092 0)
(-0.227718 0.360584 0)
(-0.247995 0.343399 0)
(-0.290213 0.360366 0)
(-0.300925 0.338222 0)
(-0.338791 0.284268 0)
(-0.293859 0.244962 0)
(-0.176427 0.146037 0)
(-0.212126 -0.0293952 0)
(0.0438887 -0.177926 0)
(0.0978807 -0.229103 0)
(0.118607 -0.355401 0)
(-0.101095 -0.211568 0)
(-0.101954 -0.370576 0)
(-0.119477 -0.26377 0)
(-0.182283 -0.385288 0)
(-0.136476 -0.338747 0)
(-0.113245 -0.322394 0)
(-0.194873 -0.419954 0)
(-0.17158 -0.294294 0)
(-0.294591 0.0132084 0)
(-0.371684 0.204516 0)
(-0.298953 0.331745 0)
(-0.246243 0.368406 0)
(-0.241064 0.367168 0)
(-0.249085 0.350816 0)
(-0.285011 0.392812 0)
(-0.224263 0.434071 0)
(-0.0957485 0.30523 0)
(-0.101111 0.136366 0)
(0.0859415 0.015009 0)
(0.146186 -0.0845402 0)
(0.311898 -0.196995 0)
(0.294234 -0.099634 0)
(0.300175 -0.289025 0)
(0.214288 -0.298745 0)
(0.23077 -0.346146 0)
(0.167838 -0.470863 0)
(0.10471 -0.244186 0)
(-0.0595369 -0.273699 0)
(-0.0816705 -0.299964 0)
(-0.0603342 -0.361242 0)
(-0.0612121 -0.277463 0)
(-0.297636 -0.145808 0)
(-0.342523 0.195127 0)
(-0.337113 0.385121 0)
(-0.284264 0.348756 0)
(-0.264368 0.355008 0)
(-0.217809 0.415076 0)
(-0.150314 0.396872 0)
(-0.137132 0.471274 0)
(-0.184186 0.209632 0)
(0.121663 0.060287 0)
(0.140243 -0.0995269 0)
(0.289619 -0.271958 0)
(0.407132 -0.315356 0)
(0.667829 -0.216644 0)
(0.70347 -0.00324225 0)
(0.46207 0.0482116 0)
(0.322551 -0.0975997 0)
(0.189966 -0.203547 0)
(0.24265 -0.393879 0)
(0.130493 -0.483674 0)
(0.130811 -0.148765 0)
(-0.112574 -0.214064 0)
(-0.215542 -0.0306133 0)
(-0.345382 -0.0109106 0)
(-0.326764 0.236259 0)
(-0.359977 0.325034 0)
(-0.39005 0.260931 0)
(-0.186592 0.356644 0)
(-0.149865 0.362427 0)
(-0.17319 0.336387 0)
(-0.0964511 0.295093 0)
(-0.0439752 0.0136858 0)
(0.130498 -0.0693258 0)
(0.218196 -0.257253 0)
(0.344834 -0.376301 0)
(0.476432 -0.318793 0)
(0.745995 -0.351821 0)
(0.840357 -0.160615 0)
(0.876847 -0.10166 0)
(0.893538 -0.0806665 0)
(0.757516 -0.0333564 0)
(0.588653 0.0551527 0)
(0.375056 -0.118922 0)
(0.223982 -0.146174 0)
(0.015515 -0.00292551 0)
(-0.311637 0.0852491 0)
(-0.373942 0.0789169 0)
(-0.283695 0.14891 0)
(-0.380469 0.107112 0)
(-0.359349 0.262362 0)
(-0.194821 0.310533 0)
(-0.162172 0.176574 0)
(-0.0977629 0.304754 0)
(0.0388737 0.294556 0)
(0.18012 0.0461706 0)
(0.206453 -0.239187 0)
(0.369939 -0.498416 0)
(0.524073 -0.564524 0)
(0.573451 -0.492176 0)
(0.727135 -0.458609 0)
(1.05931 -0.179758 0)
(1.17277 -0.132305 0)
(1.13209 0.000885258 0)
(0.841641 0.154907 0)
(0.839827 0.17394 0)
(0.78659 0.006348 0)
(0.546346 -0.0915112 0)
(0.0176253 0.130608 0)
(-0.218981 0.091708 0)
(-0.303117 0.210307 0)
(-0.350168 0.18089 0)
(-0.351984 0.172369 0)
(-0.246102 0.332425 0)
(-0.0995958 0.252887 0)
(-0.0744441 0.215585 0)
(-0.0103492 0.25817 0)
(0.183995 0.0825319 0)
(0.382591 -0.072926 0)
(0.47805 -0.257315 0)
(0.591292 -0.524243 0)
(0.644715 -0.594189 0)
(0.658268 -0.560961 0)
(0.731129 -0.429506 0)
(0.819557 -0.338788 0)
(0.910091 -0.0307459 0)
(1.28062 0.171466 0)
(1.13026 0.283696 0)
(1.08896 0.155515 0)
(1.02996 0.174275 0)
(0.728894 0.195167 0)
(0.038603 0.207608 0)
(-0.162694 0.133474 0)
(-0.234635 0.180047 0)
(-0.236186 0.190991 0)
(-0.190878 0.272262 0)
(-0.202821 0.30616 0)
(-0.135581 0.12616 0)
(0.0637104 0.0695506 0)
(0.0896882 0.0458454 0)
(0.423592 -0.0771731 0)
(0.834295 -0.479626 0)
(0.755729 -0.575317 0)
(0.665103 -0.591605 0)
(0.664774 -0.59689 0)
(0.693499 -0.571027 0)
(0.69126 -0.485646 0)
(0.836325 -0.409384 0)
(0.883238 -0.00230701 0)
(1.03844 0.0820364 0)
(1.03198 0.270869 0)
(1.10738 0.341355 0)
(1.28142 0.284764 0)
(1.09661 0.294826 0)
(0.0558308 0.249756 0)
(-0.10413 0.175196 0)
(-0.123353 0.222767 0)
(-0.0893882 0.150473 0)
(-0.129171 0.18608 0)
(-0.120963 0.194795 0)
(0.142795 0.0190208 0)
(0.278706 -0.0598159 0)
(0.400334 -0.226457 0)
(0.603016 -0.201368 0)
(0.77889 -0.505188 0)
(0.867651 -0.653935 0)
(0.773137 -0.642658 0)
(0.616862 -0.577557 0)
(0.625691 -0.558174 0)
(0.672177 -0.538816 0)
(0.841098 -0.325529 0)
(0.791958 -0.200281 0)
(0.672327 0.0677551 0)
(0.798342 0.205908 0)
(0.935053 0.480076 0)
(1.11862 0.417648 0)
(1.10091 0.391351 0)
(0.0507535 0.262505 0)
(-0.0410794 0.191865 0)
(-0.02999 0.281532 0)
(0.00174698 0.166633 0)
(0.0751482 0.16358 0)
(0.116434 0.0981808 0)
(0.315929 -0.128669 0)
(0.50277 -0.481554 0)
(0.583652 -0.525743 0)
(0.624359 -0.537764 0)
(0.717137 -0.533399 0)
(0.828844 -0.631881 0)
(0.757634 -0.712617 0)
(0.672471 -0.608198 0)
(0.58213 -0.535436 0)
(0.63423 -0.489565 0)
(0.754667 -0.508374 0)
(0.643962 -0.508776 0)
(0.607201 -0.319002 0)
(0.820424 0.0478109 0)
(0.76526 0.429624 0)
(0.771394 0.444581 0)
(0.830799 0.429282 0)
(0.0501718 0.253159 0)
(-0.0188396 0.211937 0)
(0.018406 0.237131 0)
(0.0761959 0.271626 0)
(0.0784124 0.170229 0)
(0.0870499 -0.0912193 0)
(0.307619 -0.376244 0)
(0.487811 -0.679964 0)
(0.461019 -0.617577 0)
(0.579538 -0.652754 0)
(0.643097 -0.480765 0)
(0.636414 -0.505982 0)
(0.519147 -0.549668 0)
(0.472169 -0.475688 0)
(0.488989 -0.500861 0)
(0.495976 -0.436742 0)
(0.472483 -0.504925 0)
(0.416675 -0.425037 0)
(0.576443 -0.191063 0)
(0.722577 0.113514 0)
(0.503257 0.308573 0)
(0.621606 0.527181 0)
(0.797636 0.538147 0)
(0.0566401 0.241962 0)
(-0.0230832 0.206106 0)
(0.0620599 0.192153 0)
(0.0813155 0.163732 0)
(0.0403072 0.097987 0)
(0.231584 -0.01346 0)
(0.136202 -0.451698 0)
(0.255757 -0.691062 0)
(0.237089 -0.676202 0)
(0.331058 -0.56714 0)
(0.593873 -0.420193 0)
(0.603735 -0.464729 0)
(0.464175 -0.501832 0)
(0.415763 -0.515639 0)
(0.448717 -0.576687 0)
(0.402718 -0.450356 0)
(0.36805 -0.417753 0)
(0.341118 -0.338066 0)
(0.366711 -0.187732 0)
(0.461361 -0.0937041 0)
(0.447372 0.215063 0)
(0.517008 0.584181 0)
(0.552113 0.558299 0)
(0.0489016 0.234502 0)
(-0.0361061 0.194273 0)
(0.0368498 0.14321 0)
(0.00621359 0.0755449 0)
(0.022654 0.045042 0)
(-0.00754722 -0.182603 0)
(-0.0493224 -0.506808 0)
(0.207038 -0.780455 0)
(0.229389 -0.894213 0)
(0.238905 -0.713861 0)
(0.244961 -0.454688 0)
(0.310998 -0.512792 0)
(0.311589 -0.507654 0)
(0.330023 -0.504141 0)
(0.387716 -0.465483 0)
(0.413494 -0.394818 0)
(0.378096 -0.390245 0)
(0.330242 -0.349547 0)
(0.343863 -0.291704 0)
(0.370336 -0.0707969 0)
(0.342271 0.202344 0)
(0.410603 0.547173 0)
(0.435425 0.527566 0)
(0.0347006 0.236711 0)
(-0.0573106 0.2 0)
(0.0345589 0.169358 0)
(0.0660681 0.134337 0)
(-0.0331981 0.0973719 0)
(-0.0262182 -0.00427524 0)
(-0.123701 -0.396297 0)
(-0.0393111 -0.617499 0)
(0.132393 -0.929405 0)
(0.111619 -0.849616 0)
(0.250935 -0.662191 0)
(0.335592 -0.645322 0)
(0.363761 -0.571895 0)
(0.398966 -0.52858 0)
(0.421621 -0.366506 0)
(0.376517 -0.357446 0)
(0.371461 -0.346659 0)
(0.345467 -0.316801 0)
(0.354811 -0.239697 0)
(0.379298 -0.0490655 0)
(0.223561 0.17647 0)
(0.225683 0.408356 0)
(0.227125 0.604845 0)
(0.027553 0.260819 0)
(-0.036243 0.197948 0)
(0.0740597 0.238675 0)
(0.0390704 0.154863 0)
(0.013311 0.126778 0)
(0.00658961 -0.00714896 0)
(0.0536887 -0.349557 0)
(-0.0144992 -0.556187 0)
(0.0787013 -0.918405 0)
(0.0566014 -0.73341 0)
(0.340286 -0.649762 0)
(0.240928 -0.56003 0)
(0.199341 -0.577139 0)
(0.27332 -0.559534 0)
(0.309461 -0.373388 0)
(0.316933 -0.331716 0)
(0.359686 -0.342246 0)
(0.361686 -0.322457 0)
(0.34405 -0.228421 0)
(0.282273 -0.129536 0)
(0.202199 0.240304 0)
(0.283334 0.446476 0)
(0.299862 0.780212 0)
(0.0396905 0.25647 0)
(-0.0326899 0.142785 0)
(0.109719 0.155956 0)
(0.100095 0.134319 0)
(0.0824079 0.100653 0)
(0.257918 -0.0382651 0)
(0.260954 -0.413668 0)
(0.197426 -0.623649 0)
(0.126348 -0.811859 0)
(0.0845226 -0.693591 0)
(0.12839 -0.528631 0)
(0.140331 -0.648004 0)
(0.185838 -0.654707 0)
(0.241239 -0.580783 0)
(0.223648 -0.487975 0)
(0.121723 -0.461944 0)
(0.200895 -0.374312 0)
(0.278283 -0.280427 0)
(0.238953 -0.12867 0)
(0.164762 0.0699365 0)
(0.0873048 0.528561 0)
(0.153347 0.683662 0)
(0.0126733 0.754732 0)
(0.0323035 0.253443 0)
(-0.00237116 0.125694 0)
(0.161541 0.163236 0)
(0.237993 0.0832324 0)
(0.268733 -0.0199015 0)
(0.182118 -0.196288 0)
(0.404219 -0.357682 0)
(0.338863 -0.665267 0)
(0.206358 -0.775004 0)
(0.0826461 -0.727494 0)
(0.0931227 -0.557999 0)
(0.175851 -0.691149 0)
(0.274064 -0.665706 0)
(0.0380786 -0.838529 0)
(-0.0918676 -0.748871 0)
(0.0716935 -0.522798 0)
(0.0992468 -0.427189 0)
(0.0612042 -0.326548 0)
(0.05565 -0.233257 0)
(0.0122644 0.0444633 0)
(0.0459375 0.40368 0)
(-0.100869 0.578455 0)
(-0.0950843 0.436091 0)
(0.0458192 0.230988 0)
(0.030449 0.159095 0)
(0.0915352 0.0908444 0)
(0.211911 0.0879563 0)
(0.267618 -0.0681816 0)
(0.345831 -0.185906 0)
(0.39422 -0.281697 0)
(0.346188 -0.688242 0)
(0.36802 -0.73007 0)
(0.172684 -0.699578 0)
(0.0883934 -0.506526 0)
(0.109257 -0.656112 0)
(0.0362165 -0.680333 0)
(-0.0267034 -0.961025 0)
(0.066523 -0.495005 0)
(0.0468228 -0.307873 0)
(-0.112627 -0.352419 0)
(-0.217403 -0.254901 0)
(-0.222947 -0.0180397 0)
(-0.224805 0.0482566 0)
(-0.219637 0.205618 0)
(-0.145726 0.275775 0)
(-0.0693964 0.42861 0)
(0.0304663 0.171686 0)
(0.0472368 0.0478353 0)
(0.228278 -0.195262 0)
(0.258456 -0.114034 0)
(0.254344 -0.163618 0)
(0.420969 -0.279795 0)
(0.35845 -0.386764 0)
(0.368274 -0.494588 0)
(0.396351 -0.655533 0)
(0.0630341 -0.499888 0)
(0.0212136 -0.39126 0)
(-0.000521792 -0.650396 0)
(-0.130172 -0.601876 0)
(-0.0865802 -0.696936 0)
(0.164109 -0.32851 0)
(-0.100019 -0.324319 0)
(-0.148256 -0.265571 0)
(-0.257584 -0.259016 0)
(-0.407868 -0.0980923 0)
(-0.366588 0.0974314 0)
(-0.20783 0.273489 0)
(-0.124743 0.30122 0)
(0.0457851 0.393054 0)
(0.0699073 0.142433 0)
(0.0666343 0.0344088 0)
(0.131166 -0.145766 0)
(0.166293 -0.274265 0)
(0.228757 -0.278454 0)
(0.419274 -0.319998 0)
(0.40674 -0.484366 0)
(0.375355 -0.459932 0)
(0.219688 -0.627552 0)
(0.200682 -0.54333 0)
(-0.00277207 -0.402789 0)
(-0.0546296 -0.528136 0)
(-0.198344 -0.550793 0)
(-0.262867 -0.627992 0)
(-0.0881428 -0.482044 0)
(-0.135217 -0.242272 0)
(-0.165426 -0.312895 0)
(-0.315314 -0.284022 0)
(-0.208345 -0.177561 0)
(-0.225019 0.143341 0)
(-0.150211 0.223013 0)
(-0.158921 0.288012 0)
(-0.00833183 0.325613 0)
(0.0834074 0.0371462 0)
(0.132667 -0.0639307 0)
(0.142103 -0.111549 0)
(0.116364 -0.274947 0)
(0.201573 -0.295434 0)
(0.269987 -0.403556 0)
(0.198604 -0.412728 0)
(0.250665 -0.603685 0)
(0.203453 -0.495538 0)
(0.121983 -0.234143 0)
(-0.253923 -0.11529 0)
(-0.19362 -0.541074 0)
(-0.341498 -0.716319 0)
(-0.384162 -0.758545 0)
(-0.190084 -0.781492 0)
(-0.104025 -0.184507 0)
(-0.185084 -0.327278 0)
(-0.0732953 -0.190458 0)
(-0.0765239 -0.0563971 0)
(-0.0931978 0.0399073 0)
(-0.0638272 0.0512969 0)
(-0.122845 0.179341 0)
(-0.0501907 0.268495 0)
(0.110439 -0.0772218 0)
(0.188026 -0.0564408 0)
(0.0747748 -0.160766 0)
(0.103683 -0.303103 0)
(0.177012 -0.49457 0)
(0.139858 -0.638444 0)
(0.145633 -0.489515 0)
(0.0837538 -0.440287 0)
(-0.114671 -0.0555681 0)
(-0.294001 -0.00315314 0)
(-0.316342 -0.161179 0)
(-0.297886 -0.562342 0)
(-0.363119 -0.745376 0)
(-0.368235 -0.795378 0)
(-0.269152 -0.836918 0)
(0.128162 -0.279033 0)
(-0.157584 -0.219102 0)
(-0.0244313 -0.147337 0)
(-0.050688 -0.0051169 0)
(-0.0643109 0.049665 0)
(-0.0615082 0.0826454 0)
(-0.0324322 0.109126 0)
(-0.0123611 0.196657 0)
(0.0116389 -0.120257 0)
(0.100121 -0.0326575 0)
(0.0892553 -0.125372 0)
(0.0244546 -0.275991 0)
(0.155033 -0.539685 0)
(0.268698 -0.553659 0)
(0.156123 -0.412142 0)
(-0.152882 -0.163515 0)
(-0.247432 -0.0397845 0)
(-0.318898 -0.0935382 0)
(-0.334324 -0.371968 0)
(-0.238907 -0.506618 0)
(-0.324843 -0.672508 0)
(-0.219427 -0.771817 0)
(-0.272495 -0.802566 0)
(-0.143125 -0.533141 0)
(-0.0161762 -0.268172 0)
(-0.041497 -0.183953 0)
(0.000563224 0.0145104 0)
(-0.0299073 0.0245438 0)
(-0.0273244 0.0766413 0)
(-0.0763231 0.133038 0)
(0.00990381 0.227058 0)
(-0.0488987 -0.218764 0)
(0.0211149 -0.00916078 0)
(-0.0268132 -0.20352 0)
(0.0897289 -0.275752 0)
(0.148179 -0.454792 0)
(0.142393 -0.494126 0)
(0.139829 -0.390852 0)
(0.0983518 0.0481394 0)
(-0.179866 0.249928 0)
(-0.391573 0.124186 0)
(-0.115768 -0.298176 0)
(-0.140064 -0.678449 0)
(-0.201299 -0.765015 0)
(-0.0621582 -0.819032 0)
(-0.165557 -0.905564 0)
(-0.166755 -0.775624 0)
(0.0745083 -0.369969 0)
(-0.0499798 -0.159306 0)
(-0.0133007 0.00941474 0)
(-0.0589763 0.0435334 0)
(-0.00123527 0.106666 0)
(0.044341 0.112401 0)
(0.0822512 0.196534 0)
(-0.0366721 -0.285267 0)
(0.0292923 -0.0658318 0)
(0.048133 -0.266147 0)
(0.0762711 -0.520906 0)
(0.0415535 -0.499977 0)
(0.158116 -0.54597 0)
(0.128129 -0.417929 0)
(0.0647399 0.130409 0)
(-0.00966871 0.242162 0)
(-0.156446 -0.00372914 0)
(-0.0967089 -0.313944 0)
(-0.0342944 -0.623308 0)
(0.0770921 -0.923626 0)
(0.126296 -0.8239 0)
(-0.020389 -0.822157 0)
(-0.0227329 -0.602293 0)
(0.172911 -0.335716 0)
(-0.0254688 -0.118896 0)
(0.023662 0.0494025 0)
(-0.0242794 0.0478357 0)
(-0.0233467 0.104068 0)
(0.0165876 0.0819929 0)
(0.050841 0.072592 0)
(-0.052246 -0.236616 0)
(0.0221416 -0.142555 0)
(0.0424512 -0.361416 0)
(0.141648 -0.65809 0)
(0.0794789 -0.61519 0)
(-0.106417 -0.517017 0)
(0.0284554 -0.17266 0)
(-0.0737409 0.362088 0)
(-0.0136503 0.323102 0)
(0.12918 0.101038 0)
(0.118139 -0.185111 0)
(-0.0461812 -0.469375 0)
(0.192848 -0.713697 0)
(0.237631 -0.745485 0)
(0.112832 -0.804763 0)
(0.0192106 -0.500056 0)
(0.013326 -0.348738 0)
(-0.180546 -0.0703723 0)
(-0.0764021 0.0126155 0)
(-0.0594752 0.0336393 0)
(-0.0190038 0.0464871 0)
(-0.000784541 0.0818359 0)
(0.0135727 0.0705615 0)
(-0.0635121 -0.219433 0)
(0.0251848 -0.258869 0)
(0.0640557 -0.502379 0)
(0.11364 -0.655497 0)
(0.0615978 -0.789124 0)
(0.0161873 -0.596686 0)
(0.00653545 -0.205988 0)
(-0.0782866 0.326941 0)
(0.0514165 0.310918 0)
(0.0292425 -0.0483515 0)
(0.181607 -0.208186 0)
(0.161426 -0.542516 0)
(0.300494 -0.614089 0)
(0.248159 -0.690237 0)
(0.115938 -0.691137 0)
(-0.00610599 -0.509362 0)
(0.00936321 -0.335509 0)
(0.0261186 -0.160492 0)
(-0.0985345 -0.00354503 0)
(-0.0473258 0.0153321 0)
(-0.0412589 0.0128449 0)
(-0.00688204 0.0507813 0)
(0.0495844 0.035023 0)
(-0.0838589 -0.160884 0)
(0.0292731 -0.405128 0)
(0.0259209 -0.54404 0)
(0.107582 -0.647402 0)
(-0.0125529 -0.541876 0)
(-0.115836 -0.314485 0)
(-0.0876899 -0.0761073 0)
(-0.133468 0.260831 0)
(0.074609 0.154098 0)
(0.097676 -0.197635 0)
(0.222073 -0.270171 0)
(0.236529 -0.562765 0)
(0.350087 -0.642041 0)
(0.251747 -0.774956 0)
(0.123994 -0.645818 0)
(-0.094814 -0.350886 0)
(-0.0640024 -0.148815 0)
(-0.154775 -0.0611831 0)
(-0.124184 0.00182242 0)
(-0.104282 0.0127206 0)
(-0.0344889 0.0268134 0)
(-0.0235079 -0.0037562 0)
(0.0492708 0.0100716 0)
(-0.0730278 -0.107005 0)
(0.0328256 -0.473107 0)
(-0.0091885 -0.542271 0)
(0.0219371 -0.611274 0)
(-0.108474 -0.474658 0)
(-0.127955 -0.211787 0)
(-0.190471 -0.116827 0)
(-0.123938 0.0171162 0)
(0.0252648 -0.15174 0)
(0.284941 -0.334062 0)
(0.158304 -0.43093 0)
(0.247746 -0.566612 0)
(0.269031 -0.595947 0)
(0.170242 -0.635803 0)
(0.161936 -0.664426 0)
(-0.250129 -0.330264 0)
(-0.146221 -0.184256 0)
(-0.1503 -0.0788687 0)
(-0.130944 -0.101627 0)
(-0.0777371 -0.0112552 0)
(-0.0848271 -0.0459733 0)
(-0.024127 -0.0386768 0)
(0.0649881 -0.0426202 0)
(-0.0798289 -0.0835291 0)
(0.0273184 -0.519767 0)
(-0.0523993 -0.553541 0)
(-0.0763175 -0.433282 0)
(-0.170795 -0.275614 0)
(-0.211708 -0.23954 0)
(-0.26431 -0.208561 0)
(-0.155242 -0.153713 0)
(0.0545942 -0.296617 0)
(0.170165 -0.355893 0)
(0.213005 -0.596168 0)
(0.330933 -0.564056 0)
(0.17366 -0.685216 0)
(-0.119069 -0.417643 0)
(-0.196697 -0.596324 0)
(-0.17029 -0.261393 0)
(-0.205437 -0.118751 0)
(-0.155648 -0.0928923 0)
(-0.105214 -0.0876959 0)
(-0.0507901 -0.0768712 0)
(-0.0497942 -0.0834356 0)
(0.00345565 -0.0821894 0)
(0.0319763 -0.0699435 0)
(-0.0564945 -0.0259194 0)
(-0.0120989 -0.516318 0)
(-0.139404 -0.422332 0)
(-0.189023 -0.276729 0)
(-0.234873 -0.256143 0)
(-0.218954 -0.304021 0)
(-0.219058 -0.265861 0)
(-0.104505 -0.274592 0)
(0.0906251 -0.297911 0)
(-0.0566278 -0.482932 0)
(0.0132463 -0.53151 0)
(0.11338 -0.475871 0)
(0.059272 -0.744876 0)
(-0.120682 -0.49733 0)
(-0.298986 -0.428698 0)
(-0.198355 -0.257382 0)
(-0.139875 -0.199749 0)
(-0.127276 -0.188578 0)
(-0.104935 -0.164056 0)
(-0.088631 -0.126242 0)
(-0.0497497 -0.108658 0)
(0.00291754 -0.121449 0)
(0.00471953 -0.079418 0)
(-0.0931116 -0.00768878 0)
(-0.0721816 -0.294766 0)
(-0.138225 -0.223936 0)
(-0.217216 -0.213881 0)
(-0.253377 -0.221035 0)
(-0.201662 -0.230762 0)
(-0.194831 -0.269473 0)
(-0.18755 -0.310845 0)
(-0.172931 -0.372518 0)
(-0.0841387 -0.5147 0)
(0.0760175 -0.356996 0)
(-0.0884618 -0.482348 0)
(-0.218599 -0.555771 0)
(-0.205519 -0.482438 0)
(-0.138654 -0.476348 0)
(-0.1735 -0.324881 0)
(-0.165097 -0.259609 0)
(-0.111477 -0.213494 0)
(-0.0561043 -0.202487 0)
(-0.0492032 -0.141983 0)
(-0.013801 -0.134373 0)
(0.00580043 -0.145183 0)
(0.0283599 -0.131127 0)