/*--------------------------------*- C++ -*----------------------------------*\
| =========                 |                                                 |
| \\      /  F ield         | foam-extend: Open Source CFD                    |
|  \\    /   O peration     | Version:     4.1                                |
|   \\  /    A nd           | Web:         http://www.foam-extend.org         |
|    \\/     M anipulation  |                                                 |
\*---------------------------------------------------------------------------*/
FoamFile
{
    version     2.0;
    format      ascii;
    class       surfaceScalarField;
    location    "0.75";
    object      phi_0;
}
// * * * * * * * * * * * * * * * * * * * * * * * * * * * * * * * * * * * * * //

dimensions      [0 3 -1 0 0 0 0];

internalField   nonuniform List<scalar> 
4432
(
-5.62072e-06
5.62072e-06
-1.09771e-05
5.35637e-06
-1.47976e-05
3.82049e-06
-9.49987e-06
-5.29771e-06
-1.10664e-05
1.56653e-06
-1.29337e-05
1.86728e-06
-1.24446e-05
-4.89054e-07
-1.06756e-05
-1.76901e-06
-7.70032e-06
-2.97529e-06
-9.34297e-06
1.64265e-06
-8.4276e-06
-9.15372e-07
-3.4845e-06
-4.94309e-06
-5.20821e-06
1.72371e-06
-2.39222e-06
-2.81599e-06
-3.65757e-06
1.26535e-06
-6.85117e-07
-2.97245e-06
3.52739e-07
-1.03786e-06
1.52857e-06
-1.17583e-06
2.13828e-06
-6.09713e-07
1.84127e-06
2.97012e-07
9.25302e-07
9.15966e-07
3.79876e-07
5.45427e-07
3.79877e-07
-4.56281e-06
1.01835e-05
-4.89649e-06
5.69006e-06
-7.54587e-06
6.46986e-06
-9.87902e-06
-2.96456e-06
-1.09186e-05
2.60606e-06
-1.25674e-05
3.51612e-06
-1.20819e-05
-9.74516e-07
-9.49467e-06
-4.35627e-06
-1.30868e-05
6.16856e-07
-9.79425e-06
-1.64991e-06
-4.96499e-06
-5.74463e-06
-7.69495e-06
-2.21313e-06
-7.04447e-06
1.07323e-06
-4.03198e-06
-5.82848e-06
-3.66945e-06
9.02818e-07
-2.24314e-06
-4.39876e-06
-1.62181e-06
-1.65919e-06
7.0401e-08
-2.86803e-06
8.59782e-07
-1.39909e-06
8.5704e-07
2.99756e-07
3.00001e-08
1.74301e-06
-8.09642e-07
1.38507e-06
-4.29764e-07
-6.55292e-06
1.67364e-05
-1.20242e-05
1.11613e-05
-1.62427e-05
1.06883e-05
-1.92274e-05
2.01319e-08
-2.23856e-05
5.7643e-06
-1.39247e-05
-4.94475e-06
-1.25397e-05
-2.35955e-06
-9.39213e-06
-7.50384e-06
-1.41871e-05
5.41187e-06
-6.67273e-06
-9.16432e-06
-1.11462e-05
-1.2712e-06
-1.04272e-05
-2.93209e-06
-6.02045e-06
-3.33352e-06
-1.02878e-05
-1.56112e-06
-5.05191e-06
-4.33308e-06
-8.60249e-06
-8.48185e-07
-3.30541e-06
-6.95627e-06
-1.84351e-06
-4.32993e-06
-1.24136e-06
-2.00124e-06
-4.37867e-07
-5.03734e-07
-3.77851e-07
1.68299e-06
-6.88183e-07
1.6954e-06
-1.11795e-06
-7.42666e-06
2.41631e-05
-1.14565e-05
1.51912e-05
-9.01122e-06
8.24307e-06
-1.04468e-05
1.45571e-06
-1.14405e-05
6.75802e-06
-1.36866e-05
-2.69869e-06
-1.23537e-05
-3.69244e-06
-2.01143e-05
2.5678e-07
-1.01342e-05
-4.56824e-06
-1.63395e-05
-2.95906e-06
-1.67317e-05
-8.78998e-07
-1.8132e-05
-1.5318e-06
-1.8433e-05
-3.03245e-06
-1.84246e-05
-1.5695e-06
-1.76691e-05
-5.08865e-06
-1.65263e-05
-1.99099e-06
-1.41971e-05
-9.2854e-06
-1.04595e-05
-8.06758e-06
-6.93507e-06
-5.52565e-06
-3.63868e-06
-3.80013e-06
-2.32976e-06
3.74076e-07
-1.80815e-06
1.17379e-06
-2.9261e-06
-8.40079e-06
3.25639e-05
-1.39413e-05
2.07316e-05
-1.76237e-05
1.19255e-05
-1.95401e-05
3.37215e-06
-1.22257e-05
-5.56399e-07
-1.50951e-05
1.70681e-07
-1.3789e-05
-4.99851e-06
-1.27067e-05
-8.25558e-07
-1.18914e-05
-5.3835e-06
-1.90307e-05
4.18021e-06
-1.94013e-05
-5.08406e-07
-2.08813e-05
-5.17581e-08
-2.19821e-05
-1.93167e-06
-2.19044e-05
-1.64715e-06
-2.19807e-05
-5.01244e-06
-2.07319e-05
-3.23976e-06
-1.82976e-05
-1.17196e-05
-1.6342e-05
-1.00232e-05
-1.43637e-05
-7.50396e-06
-1.02873e-05
-7.8765e-06
-5.3115e-06
-4.60173e-06
-2.2324e-06
-1.9053e-06
-5.1585e-06
-5.60617e-06
3.81701e-05
-1.45067e-05
2.96321e-05
-2.0776e-05
1.81948e-05
-2.38037e-05
6.39985e-06
-1.365e-05
-1.07101e-05
-1.62003e-05
2.721e-06
-1.4629e-05
-6.56973e-06
-1.25769e-05
-2.87767e-06
-2.32911e-05
5.33071e-06
-2.32796e-05
4.16871e-06
-2.44029e-05
6.149e-07
-2.4312e-05
-1.42725e-07
-2.42968e-05
-1.94688e-06
-2.31908e-05
-2.75315e-06
-2.14058e-05
-6.79743e-06
-2.10763e-05
-3.5692e-06
-2.02943e-05
-1.25017e-05
-1.81873e-05
-1.21302e-05
-1.623e-05
-9.46124e-06
-1.51702e-05
-8.9363e-06
-5.77621e-06
-1.39958e-05
-2.69542e-06
-4.98609e-06
-7.85392e-06
-9.45182e-06
4.76219e-05
-7.48941e-06
2.76697e-05
-1.15616e-05
2.2267e-05
-1.38915e-05
8.72971e-06
-1.38211e-05
-1.07805e-05
-1.56123e-05
4.51219e-06
-2.8287e-05
6.10496e-06
-2.66914e-05
-4.47325e-06
-2.55178e-05
4.15711e-06
-2.48991e-05
3.55e-06
-2.52249e-05
9.40755e-07
-2.46716e-05
-6.9599e-07
-2.41025e-05
-2.516e-06
-2.31097e-05
-3.74596e-06
-2.33957e-05
-6.51143e-06
-2.31646e-05
-3.80034e-06
-2.03313e-05
-1.5335e-05
-1.78509e-05
-1.46106e-05
-1.61131e-05
-1.1199e-05
-1.49167e-05
-1.01327e-05
-1.17366e-05
-1.71758e-05
-5.80626e-06
-1.09164e-05
-1.36602e-05
-6.82812e-06
5.445e-05
-1.79982e-05
3.88398e-05
-2.57957e-05
3.00645e-05
-2.99182e-05
1.28522e-05
-2.98681e-05
-1.08306e-05
-1.88144e-05
-6.54152e-06
-1.7715e-05
5.00555e-06
-2.65762e-05
4.38799e-06
-2.64565e-05
4.03745e-06
-2.77485e-05
4.84198e-06
-2.71959e-05
3.88172e-07
-2.64272e-05
-1.46469e-06
-2.64433e-05
-2.49997e-06
-2.47044e-05
-5.48488e-06
-2.40589e-05
-7.1569e-06
-2.55265e-05
-2.3327e-06
-1.91323e-05
-2.17291e-05
-1.60081e-05
-1.77349e-05
-1.50092e-05
-1.21979e-05
-1.63703e-05
-8.77161e-06
-1.48205e-05
-1.87257e-05
-7.78274e-06
-1.79542e-05
-2.14429e-05
-6.20158e-05
6.20158e-05
-8.96439e-05
2.76281e-05
-0.000110155
2.05116e-05
-0.000120617
1.04616e-05
-0.000127569
6.95244e-06
-0.00013325
5.681e-06
-0.000128793
-4.45745e-06
-0.000114806
-1.39871e-05
-0.000100636
-1.41702e-05
-8.1978e-05
-1.86577e-05
-6.00326e-05
-2.19455e-05
-4.70094e-05
-1.30231e-05
-3.60721e-05
-1.09374e-05
-2.48362e-05
-1.12358e-05
-1.36888e-05
-1.11475e-05
-1.11713e-05
-2.51746e-06
-8.58382e-06
-2.58749e-06
-2.68568e-06
-5.89814e-06
-2.68568e-06
-5.943e-05
0.000121446
-8.10606e-05
4.92588e-05
-9.73282e-05
3.67792e-05
-0.000109225
2.23579e-05
-0.000117254
1.49819e-05
-0.000116811
5.2379e-06
-0.000105264
-1.60044e-05
-9.17025e-05
-2.75484e-05
-8.15924e-05
-2.42804e-05
-6.35309e-05
-3.67191e-05
-4.14732e-05
-4.40032e-05
-3.19102e-05
-2.25862e-05
-2.82334e-05
-1.46142e-05
-1.19928e-05
-2.74764e-05
-1.62254e-05
-6.91486e-06
-1.56022e-05
-3.14072e-06
-4.50069e-06
-1.3689e-05
-3.98326e-06
-6.41556e-06
-6.66894e-06
-2.97053e-05
0.000151151
-6.76133e-05
8.71668e-05
-8.35464e-05
5.27122e-05
-8.62568e-05
2.50683e-05
-8.43127e-05
1.30377e-05
-7.07379e-05
-8.33688e-06
-3.45361e-05
-5.22062e-05
-2.63454e-05
-3.57391e-05
-2.81508e-05
-2.2475e-05
-5.80998e-06
-5.906e-05
9.64382e-06
-5.9457e-05
1.35852e-05
-2.65276e-05
7.75245e-06
-8.78143e-06
8.9467e-07
-2.06186e-05
-3.34279e-06
-2.6774e-06
5.33242e-06
-1.18159e-05
2.26894e-05
-3.10459e-05
1.32839e-05
2.98991e-06
6.61498e-06
-2.2535e-05
0.000173686
-4.27892e-05
0.000107421
-2.32596e-05
3.31827e-05
-4.0556e-05
4.23646e-05
-2.74386e-05
-7.96595e-08
-5.26158e-07
-3.52493e-05
2.6692e-05
-7.94244e-05
3.33233e-05
-4.23704e-05
3.51066e-05
-2.42582e-05
1.92841e-05
-4.32375e-05
2.12981e-05
-6.14709e-05
2.08524e-05
-2.60819e-05
3.63361e-05
-2.42651e-05
1.41437e-05
1.57388e-06
1.17628e-05
-2.96552e-07
1.33351e-05
-1.33882e-05
1.8015e-05
-3.57259e-05
2.54447e-05
-4.43974e-06
3.20597e-05
-1.75963e-05
0.000191282
-2.74052e-05
0.00011723
-3.454e-05
4.03175e-05
-1.52548e-05
2.30795e-05
6.64459e-06
-2.19791e-05
1.62915e-05
-4.48962e-05
2.05809e-05
-8.37138e-05
6.1556e-05
-8.33455e-05
6.03238e-05
-2.3026e-05
5.51543e-05
-3.8068e-05
2.94147e-05
-3.57313e-05
4.61779e-05
-4.28451e-05
3.95859e-05
-1.76732e-05
2.85699e-05
1.25899e-05
2.12564e-05
7.01698e-06
8.59328e-06
-7.25051e-07
3.55444e-07
-2.74881e-05
1.61914e-05
-2.02757e-05
4.8251e-05
-1.36629e-05
0.000204945
-1.71959e-05
0.000120763
-1.80034e-05
4.1125e-05
3.93961e-06
1.13641e-06
1.72727e-05
-3.53122e-05
1.22419e-05
-3.98654e-05
1.80439e-05
-8.95157e-05
2.98304e-05
-9.5132e-05
6.04237e-05
-5.36193e-05
5.44751e-05
-3.21194e-05
5.20935e-05
-3.33498e-05
4.80839e-05
-3.88354e-05
4.58899e-05
-1.54793e-05
3.53763e-05
2.31035e-05
2.1539e-05
2.08542e-05
6.81782e-06
1.39962e-05
3.97866e-06
-2.46489e-05
1.17677e-05
-2.80647e-05
6.00187e-05
-1.10124e-05
0.000215958
-1.01468e-05
0.000119897
8.43725e-06
2.25409e-05
2.85286e-05
-1.89549e-05
8.59925e-06
-1.53829e-05
8.58852e-06
-3.98547e-05
3.00944e-05
-0.000111022
2.85472e-05
-9.35848e-05
2.80528e-05
-5.31249e-05
4.83467e-05
-5.24133e-05
4.02496e-05
-2.52527e-05
1.75456e-05
-1.61313e-05
3.76015e-05
-3.55352e-05
2.82371e-05
3.24678e-05
1.78533e-05
3.12381e-05
1.46274e-05
1.7222e-05
5.21994e-06
-1.52414e-05
1.10825e-05
-3.39272e-05
7.11012e-05
-1.04078e-05
0.000226365
3.55768e-06
0.000105932
1.5364e-05
1.07346e-05
2.16384e-05
-2.52292e-05
1.2913e-05
-6.65751e-06
-7.02192e-07
-2.62395e-05
1.36024e-05
-0.000125326
2.67544e-05
-0.000106737
5.45044e-05
-8.08749e-05
4.8338e-05
-4.62468e-05
3.62168e-05
-1.31315e-05
2.42856e-05
-4.20011e-06
1.36491e-05
-2.48987e-05
5.10065e-06
4.10163e-05
-3.26643e-06
3.96052e-05
2.34737e-05
-9.51809e-06
1.48592e-05
-6.62695e-06
-9.25241e-07
-1.81428e-05
7.0176e-05
-1.48463e-05
6.92963e-05
-2.16959e-05
4.56895e-05
-3.7362e-05
4.57305e-05
-4.24282e-05
1.79184e-05
-6.31722e-05
9.91345e-06
-6.18851e-05
-7.82861e-06
-6.31095e-05
6.22994e-06
-6.1575e-05
2.85347e-06
-6.05954e-05
3.05789e-06
-5.73935e-05
1.64001e-06
-5.55116e-05
-1.49371e-06
-5.29368e-05
-4.0395e-06
-5.16227e-05
-3.81409e-06
-4.98882e-05
-7.21938e-06
-5.49436e-05
-2.10145e-06
-3.19079e-05
-2.53684e-05
-4.52982e-05
-8.33888e-06
-3.68516e-05
-2.61815e-05
-3.10744e-05
-1.79751e-05
-1.7693e-05
-2.2153e-05
-1.82968e-05
-1.81218e-05
-8.23132e-06
-2.80196e-05
-2.79775e-05
-1.69675e-06
-9.87094e-05
0.000168006
-0.00011577
6.27501e-05
-6.74098e-05
-2.62974e-06
-5.71444e-05
7.65306e-06
-4.31703e-05
-4.06066e-06
-6.63928e-05
1.53939e-05
-6.07404e-05
5.77538e-07
-5.83382e-05
4.51257e-07
-5.70998e-05
1.81951e-06
-5.61397e-05
6.7994e-07
-5.30433e-05
-4.59013e-06
-4.9331e-05
-7.75185e-06
-4.29467e-05
-1.01984e-05
-4.61167e-05
-4.04933e-06
-3.15724e-05
-1.66458e-05
-2.80285e-05
-2.89123e-05
-1.71351e-05
-1.92323e-05
-2.07149e-05
-2.26016e-05
-1.85629e-05
-2.01271e-05
-1.00698e-05
-3.06461e-05
-1.30568e-05
-1.51349e-05
-2.70929e-05
-1.39836e-05
-1.65471e-05
-3.85232e-05
-7.99955e-05
0.000248001
-8.88945e-05
7.16491e-05
-0.000102804
1.12802e-05
-0.00010782
1.26682e-05
-0.000106446
-5.43473e-06
-6.05276e-05
-3.0524e-05
-5.99679e-05
1.78501e-08
-9.08548e-05
3.13381e-05
-9.23506e-05
3.31526e-06
-9.28279e-05
1.15727e-06
-8.47727e-05
-1.26453e-05
-7.452e-05
-1.80046e-05
-6.71352e-05
-1.75831e-05
-6.62655e-05
-4.91909e-06
-7.21184e-05
-1.07929e-05
-6.69871e-05
-3.40435e-05
-5.89517e-05
-2.72677e-05
-5.53519e-05
-2.62014e-05
-2.41497e-05
-5.13292e-05
-7.64057e-06
-4.71552e-05
5.83893e-06
-2.86144e-05
-4.3834e-06
-3.76125e-06
1.83065e-06
-2.27612e-05
-8.06039e-05
0.000328605
-4.6778e-05
3.78232e-05
-7.534e-05
3.98421e-05
-0.000158233
9.55609e-05
-0.000188344
2.46763e-05
-0.000231296
1.2428e-05
-0.000271453
4.01747e-05
-0.000300798
6.06833e-05
-0.000330808
3.33258e-05
-0.000276721
-5.29305e-05
-0.000235745
-5.36212e-05
-0.000167566
-8.61838e-05
-0.000150947
-3.42015e-05
-0.000120668
-3.51985e-05
-8.48601e-05
-4.66006e-05
-9.22342e-05
-2.66695e-05
-0.000121338
1.83645e-06
-0.000128453
-1.9087e-05
-7.61098e-05
-0.000103672
-1.8059e-05
-0.000105206
1.09237e-05
-5.75971e-05
6.75122e-07
6.48729e-06
4.62906e-05
-4.37848e-05
-4.98556e-05
0.000378461
-9.30573e-05
8.10249e-05
-0.000220773
0.000167558
-0.00036287
0.000237658
-0.000526804
0.00018861
-0.000686101
0.000171725
-0.000838545
0.000192619
-0.000839285
6.14228e-05
-0.00073334
-7.26192e-05
-0.000657366
-0.000128904
-0.000548583
-0.000162405
-0.000475332
-0.000159434
-0.000362284
-0.00014725
-0.000222172
-0.000175311
-0.000177841
-9.09315e-05
-0.000136752
-6.77583e-05
-0.00013651
1.59466e-06
-0.000123037
-3.25602e-05
-0.000124028
-0.000102682
-0.000126794
-0.000102439
-0.000131089
-5.33022e-05
-0.00014805
2.34476e-05
7.03534e-05
-0.000172112
-4.1592e-05
0.000420053
-0.000139473
0.000178906
-0.000283203
0.000311288
-0.000390103
0.000344557
-0.000470746
0.000269253
-0.000707083
0.000408061
-0.000747484
0.00023302
-0.000612333
-7.37283e-05
-0.000537177
-0.000147775
-0.00048554
-0.000180542
-0.000456412
-0.000191532
-0.000425316
-0.00019053
-0.000380562
-0.000192005
-0.00034939
-0.000206483
-0.000334483
-0.000105839
-0.000220676
-0.000181565
-0.000125849
-9.32318e-05
-8.49351e-05
-7.34739e-05
-9.86653e-05
-8.89515e-05
-0.00016429
-3.68147e-05
-0.000172291
-4.53008e-05
-0.000180024
3.11802e-05
8.70362e-05
-0.000196707
-5.50431e-05
0.000475096
-0.000208294
0.000332157
-0.000161811
0.000264804
-0.000313588
0.000496334
-0.000513436
0.000469101
-0.000418451
0.000313076
-0.000491064
0.000305633
-0.00050369
-6.11026e-05
-0.000510913
-0.000140551
-0.000500051
-0.000191404
-0.000465654
-0.000225929
-0.000428813
-0.000227371
-0.000395971
-0.000224847
-0.000381825
-0.000220629
-0.000359092
-0.000128571
-0.000317592
-0.000223065
-0.000214778
-0.000196046
-0.000170021
-0.000118231
-0.000166009
-9.29635e-05
-0.000173407
-2.94167e-05
-0.000197365
-2.1343e-05
-0.00017675
1.05656e-05
5.86024e-05
-0.000148316
-5.23238e-05
0.000527419
-7.34383e-05
0.000353271
-0.000228089
0.000419455
-0.000232327
0.000500573
-0.000312498
0.000549272
-0.000336358
0.000336936
-0.000401477
0.000370752
-0.000478811
1.62318e-05
-0.000496381
-0.000122982
-0.000516169
-0.000171615
-0.000484483
-0.000257615
-0.000445358
-0.000266496
-0.000397493
-0.000272712
-0.000375235
-0.000242887
-0.000369614
-0.000134193
-0.000344149
-0.00024853
-0.000294844
-0.000245351
-0.000218333
-0.000194742
-0.000182879
-0.000128417
-0.000113993
-9.83032e-05
-9.68291e-05
-3.85066e-05
-0.000115683
2.94196e-05
4.27648e-05
-9.98454e-05
-5.62205e-05
0.00058364
-0.000121306
0.000418357
-0.000153716
0.000451865
-0.000154182
0.000501039
-0.000201778
0.000596868
-0.000313581
0.000448739
-0.000399151
0.000456322
-0.000421722
3.88022e-05
-0.000388923
-0.00015578
-0.000417706
-0.000142833
-0.000463036
-0.000212286
-0.000466625
-0.000262907
-0.000431918
-0.000307419
-0.000405562
-0.000269242
-0.000389193
-0.000150561
-0.000362735
-0.000274988
-0.000333053
-0.000275034
-0.000288343
-0.000239452
-0.000273656
-0.000143104
-0.000240857
-0.000131102
-0.000186491
-9.28719e-05
-0.000126413
-3.06591e-05
-3.2274e-05
-5.1374e-05
-5.77766e-05
0.000641417
-0.000116944
0.000477524
-0.000117571
0.000452492
-4.41988e-05
0.000427667
-2.72393e-05
0.000579908
-0.000241816
0.000663316
-0.000273933
0.000488439
-0.000323609
8.84782e-05
-0.000328748
-0.000150642
-0.000327194
-0.000144386
-0.000329349
-0.000210131
-0.000356842
-0.000235414
-0.00037833
-0.000285931
-0.000348361
-0.000299212
-0.000323107
-0.000175815
-0.000322697
-0.000275398
-0.000319937
-0.000277794
-0.000298817
-0.000260572
-0.00028675
-0.000155172
-0.00029443
-0.000123422
-0.000301072
-8.62304e-05
-0.00024689
-8.48408e-05
-9.01022e-05
-0.000189062
-6.05398e-05
0.000701956
-0.000114074
0.000531058
-0.000130416
0.000468834
-3.11868e-05
0.000328437
-1.80642e-05
0.000566786
-7.02341e-05
0.000715486
-0.000154339
0.000572543
-0.000267628
0.000201768
-0.000297569
-0.000120702
-0.000302254
-0.000139701
-0.000273175
-0.00023921
-0.000257485
-0.000251104
-0.000274177
-0.000269239
-0.000297259
-0.00027613
-0.000173108
-0.000299966
-0.000166314
-0.000282191
-0.000172268
-0.00027184
-0.000294247
-0.000138593
-0.000290595
-0.000158823
-0.000324181
-8.98361e-05
-0.000308065
-0.000102346
-0.000278885
-0.000114021
-0.00011326
-0.000255728
-5.12178e-05
0.000753174
-8.85595e-05
0.0005684
-9.19766e-05
0.000472251
-7.46564e-05
0.000311117
-5.09937e-05
0.000543123
-1.76761e-05
0.000682168
-6.71161e-05
0.000621983
-0.000176536
0.000311188
-0.000249954
-4.72833e-05
-0.000216759
-0.000172896
-0.000186984
-0.000268985
-0.000137585
-0.000300503
-0.000156366
-0.000250458
-0.000172188
-0.000260308
-0.000297935
-0.000174219
-0.000305362
-0.000274765
-0.000321126
-0.000256076
-0.000323498
-0.000136221
-0.000303191
-0.00017913
-0.000296867
-9.616e-05
-0.000283438
-0.000115775
-0.000165942
-0.000231517
-0.000127679
-0.000151523
-2.92258e-05
0.0007824
-4.70462e-05
0.00058622
-3.47627e-05
0.000459967
-5.35981e-05
0.000329952
-2.04127e-05
0.000509938
3.04655e-05
0.00063129
5.86091e-05
0.00059384
3.51097e-05
0.000334687
-7.15693e-06
-5.01686e-06
4.56061e-06
-0.000184614
1.57172e-05
-0.000280141
-0.000144378
-0.000140408
-0.000211222
-0.000183614
-0.000267007
-0.000204523
-0.000275098
-0.000166128
-0.000421748
-0.000128114
-0.000479703
-0.000198121
-0.000405013
-0.000210911
-0.000396097
-0.000188046
-0.000393768
-9.84895e-05
-0.000315548
-0.000193995
-0.0002995
-0.000247565
-0.000259973
-0.000167206
4.1491e-06
0.000778251
-3.42771e-06
0.000593797
2.66972e-06
0.00045387
1.05918e-06
0.000331563
5.01677e-05
0.000460829
0.000113181
0.000568276
0.000174247
0.000532774
0.000226597
0.000282337
0.00015913
6.24495e-05
0.000180077
-0.000205561
0.000105416
-0.00020548
5.32297e-05
-8.82215e-05
-0.000110647
-1.97367e-05
-0.000267874
-4.72965e-05
-0.000321249
-0.000112754
-0.000251744
-0.00019762
-0.000315711
-0.000134154
-0.000435742
-9.08799e-05
-0.000430042
-0.000193745
-0.000304544
-0.000223988
-0.000294192
-0.000204348
-0.000390903
-0.000150854
-0.000187398
-0.000463478
3.05759e-05
0.000747675
3.22706e-05
0.000592102
8.70347e-05
0.000399106
-5.84225e-06
0.00042444
5.23588e-05
0.000402628
0.000145553
0.000475082
0.000285756
0.000392571
0.000397249
0.000170844
0.000455913
3.78517e-06
0.00039873
-0.000148378
0.000246725
-5.34753e-05
0.00015228
6.22362e-06
2.3698e-05
0.000108845
-0.000102633
7.90342e-05
-0.00024043
2.50435e-05
-0.000420597
-1.74526e-05
-0.000488287
-6.64639e-05
-0.000499236
-7.99302e-05
-0.000486827
-0.000206155
-0.000522326
-0.000188489
-0.000576271
-0.000150402
-0.000542906
-0.000184219
-0.000175434
-0.00055487
3.23729e-06
0.000744438
9.24029e-06
0.000586099
5.18335e-05
0.000356512
9.98139e-07
0.000475275
4.97884e-05
0.000353837
0.000148569
0.000376301
0.000334257
0.000206883
0.000440415
6.46866e-05
0.000534767
-9.05669e-05
0.000547361
-0.000160973
0.000527734
-3.38475e-05
0.000484852
4.91052e-05
0.000303336
0.000290361
0.000143953
0.000238418
-3.90007e-05
0.000207997
-0.000147323
9.08697e-05
-0.000231658
1.78715e-05
-0.000310128
-1.46009e-06
-0.00045573
-6.05532e-05
-0.000502703
-0.000141516
-0.000510686
-0.000142419
-0.000483219
-0.000211686
-0.000149602
-0.00050905
-4.50665e-06
0.000748944
4.99697e-06
0.000576595
-2.00634e-05
0.000381573
-6.88183e-05
0.00052403
2.05907e-05
0.000264428
0.000100638
0.000296254
0.000312106
-4.58545e-06
0.000385669
-8.87659e-06
0.000332454
-3.73519e-05
0.000231828
-6.03468e-05
0.000213894
-1.59142e-05
0.000139476
0.000123523
0.000119573
0.000310264
6.54842e-05
0.000292507
-4.3928e-05
0.000317409
-0.000256381
0.000303322
-0.000439386
0.000200877
-0.000539041
9.81947e-05
-0.000541474
-5.81205e-05
-0.000536581
-0.000146409
-0.000530743
-0.000148256
-0.000531495
-0.000210934
-0.00019794
-0.000483158
2.71355e-05
0.000721809
2.43645e-05
0.000579366
-0.000100743
0.00050668
-0.000119429
0.000542716
-0.000139123
0.000284122
-5.58657e-05
0.000212997
-5.16638e-06
-5.52848e-05
8.49986e-07
-1.48931e-05
-3.90996e-05
2.59754e-06
-0.000120869
2.14228e-05
-0.000149115
1.23312e-05
-8.86901e-05
6.30989e-05
-5.71811e-05
0.000278755
-9.62043e-05
0.00033153
-0.000175586
0.000396791
-0.000253297
0.000381033
-0.000352894
0.000300474
-0.000424656
0.000169956
-0.000455737
-2.70388e-05
-0.000511439
-9.07074e-05
-0.000489712
-0.000169983
-0.000472051
-0.000228594
-0.000209253
-0.000460739
2.78363e-05
0.000693972
-1.26877e-05
0.00061989
-0.000107508
0.0006015
-0.000181251
0.00061646
-0.000326694
0.000429565
-0.000176402
6.27046e-05
-0.000252964
2.12773e-05
-0.000259135
-8.72242e-06
-0.000236367
-2.01705e-05
-0.000221645
6.70065e-06
-0.000259332
5.00186e-05
-0.000313202
0.000116969
-0.00025833
0.000223883
-0.000215301
0.000288501
-0.000213362
0.000394853
-0.000192021
0.000359692
-0.000265279
0.000373732
-0.000338191
0.000242868
-0.000354677
-1.05526e-05
-0.000366722
-7.86619e-05
-0.000292021
-0.000244685
-0.000261407
-0.000259208
-0.000181271
-0.000289389
3.70174e-06
0.000690271
-4.33518e-05
0.000666944
-0.000133439
0.000691588
-0.000262065
0.000745086
-0.000311604
0.000479104
-0.000344543
9.56439e-05
-0.000356514
3.3248e-05
-0.000338135
-2.71019e-05
-0.000299512
-5.87936e-05
-0.000273922
-1.88886e-05
-0.000313114
8.92107e-05
-0.000355985
0.00015984
-0.000347023
0.000214921
-0.000339486
0.000280964
-0.000262406
0.000317772
-0.00022684
0.000324126
-0.000128264
0.000275155
-0.000209843
0.000324448
-0.000243779
2.3383e-05
-0.000154478
-0.000167963
-0.000141956
-0.000257206
-0.000196919
-0.000204245
-0.000244444
-0.000133746
4.88578e-06
0.000685385
-5.08214e-06
0.000676912
-6.58512e-05
0.000752357
-9.70989e-05
0.000776334
-0.000188454
0.000570459
-0.000192565
9.97551e-05
-0.000197933
3.86163e-05
-0.000205075
-1.99602e-05
-0.00020504
-5.88282e-05
-0.00021005
-1.3879e-05
-0.000169128
4.82886e-05
-0.000165659
0.000156371
-0.000185471
0.000234733
-0.000282264
0.000377758
-0.000189214
0.000224722
-0.00023097
0.000365882
-0.00019169
0.000235875
-0.000159862
0.000292621
-0.000139112
2.6328e-06
-0.000148617
-0.000158459
-0.000163351
-0.000242471
-9.12485e-05
-0.000276348
-0.000319806
-1.58865e-05
3.45326e-06
0.000681932
1.65004e-05
0.000663865
8.90652e-07
0.000767966
-3.1816e-05
0.00080904
-0.000146662
0.000685305
-0.000297514
0.000250607
-0.000344144
8.52462e-05
-0.000356749
-7.35571e-06
-0.00038433
-3.12471e-05
-0.000392988
-5.22084e-06
-0.000379961
3.52615e-05
-0.000247562
2.3972e-05
-0.000205147
0.000192318
-0.000126288
0.000298899
-0.000185615
0.000284049
-0.000125717
0.000305985
-0.000148984
0.000259142
-9.92097e-05
0.000242846
-4.41126e-05
-5.24644e-05
-9.164e-05
-0.000110931
-6.80339e-05
-0.000266077
-1.24867e-05
-0.000331895
-0.00035267
2.0377e-05
5.05845e-06
0.000676873
1.51855e-05
0.000653738
4.76465e-05
0.000735506
6.13409e-05
0.000795346
-1.7554e-05
0.0007642
-0.000143541
0.000376594
-0.000206894
0.000148599
-0.000362663
0.000148413
-0.000453474
5.95638e-05
-0.000466891
8.19604e-06
-0.000340154
-9.14757e-05
-0.000290867
-2.53147e-05
-0.00020808
0.000109531
-0.000138335
0.000229154
-0.00011782
0.000263534
-9.54153e-05
0.00028358
-7.58588e-05
0.000239585
-2.87808e-05
0.000195768
5.01099e-06
-8.62562e-05
7.32127e-05
-0.000179133
2.77366e-05
-0.000220601
7.0144e-05
-0.000374303
-0.000376698
9.41725e-05
4.29505e-05
0.000633923
5.77304e-05
0.000638958
0.000101268
0.000691968
0.000146313
0.000750301
0.000187403
0.00072311
3.1883e-05
0.000532114
-0.000141254
0.000321736
-0.000118013
0.000125173
-0.000208144
0.000149694
-0.000207425
7.47794e-06
-0.000229501
-6.93998e-05
-0.000245957
-8.85901e-06
-0.00018691
5.0484e-05
-0.000125291
0.000167535
-9.82031e-05
0.000236446
-7.74101e-05
0.000262787
-1.02243e-05
0.0001724
2.8334e-05
0.00015721
2.52901e-05
-8.32124e-05
0.000164449
-0.000318292
0.000187614
-0.000243766
0.000149765
-0.000336454
-0.000288177
6.12437e-05
7.72962e-05
0.000556627
0.000131819
0.000584434
0.000181644
0.000642143
0.000275925
0.000656021
0.000358911
0.000640124
0.000347068
0.000543957
0.000238654
0.00043015
0.000182424
0.000181404
3.29408e-05
0.000299177
-0.000110563
0.000150981
-0.000202646
2.2684e-05
-0.000165599
-4.59067e-05
-0.000142017
2.69028e-05
-0.000142968
0.000168485
-6.5776e-05
0.000159254
-8.83192e-06
0.000205843
1.42181e-05
0.000149349
0.000105918
6.55093e-05
0.000177651
-0.000154944
9.1203e-05
-0.000231844
0.00024264
-0.000395203
0.000134344
-0.000228158
-0.000384814
0.000230981
0.00010073
0.000455897
0.000104821
0.000580344
0.000165442
0.000581521
0.000146518
0.000674945
0.000393564
0.000393077
0.000413752
0.000523769
0.000386397
0.000457504
0.000276901
0.000290899
0.000194888
0.00038119
0.000119935
0.000225934
9.06495e-05
5.19695e-05
3.56465e-06
4.11782e-05
-2.07514e-05
5.12189e-05
-9.18389e-06
0.000156918
6.65594e-07
0.000149404
0.000111424
9.50849e-05
0.000196288
6.44851e-05
0.000262118
-3.20683e-07
0.000257112
-0.000149939
0.000376882
-0.000351614
0.000184349
-0.000202671
0.000299536
-0.000343345
-0.000361006
0.000275728
2.60801e-05
0.000429817
9.33728e-05
0.000513051
0.000124562
0.000550333
0.000242238
0.000557268
0.000233267
0.000402048
0.000248317
0.00050872
0.000439475
0.000266346
0.000331037
0.000399338
0.000405575
0.000306652
0.000367633
0.000263876
0.000315667
0.000103936
0.000262277
9.45675e-05
0.000158205
0.000155291
0.000136071
0.000179051
0.000243766
4.17093e-05
0.000272321
6.65294e-05
0.000339768
-2.96113e-06
0.000413441
-7.39942e-05
0.000420603
-0.000157101
0.000240497
-0.000171508
0.00021087
-0.000173044
0.000184872
-0.000317346
-0.000328502
0.000152369
-9.18241e-05
0.000521641
7.65691e-05
0.000344658
8.98284e-05
0.000537073
0.000321159
0.000325938
0.000176111
0.000547096
0.000394438
0.000290392
0.000424146
0.000236638
0.000480144
0.00034334
0.000456588
0.000330208
0.000440306
0.000280157
0.000412627
0.000131615
0.00036621
0.000140984
0.000256932
0.000264569
0.000324002
0.000111981
0.000245202
0.000120509
0.000254533
5.71985e-05
0.000263248
-1.16759e-05
0.000257168
-6.79139e-05
0.000258213
-0.000158146
0.000272933
-0.000186228
0.000356866
-0.000256976
0.000339709
-0.00030019
-0.000282389
0.000293595
-6.31072e-06
0.000527952
4.79789e-05
0.000290368
9.52741e-05
0.000489778
0.000158053
0.000263159
0.000249276
0.000455874
0.000285541
0.000254127
0.000299097
0.000223082
0.000251819
0.000390618
0.000398491
0.000183536
0.00040143
0.000277219
0.000290069
0.000242975
0.000288348
0.000142705
0.000434534
0.000118384
0.000406307
0.000140208
0.000456424
7.03923e-05
0.000476237
3.73862e-05
0.000481119
-1.65579e-05
0.000468999
-5.57948e-05
0.000438119
-0.000127265
0.000427444
-0.000175553
0.000315495
-0.000145027
0.000306865
-0.000291559
-0.00018875
0.000213226
2.7368e-05
0.000500584
4.90169e-05
0.000268719
0.000122406
0.000416389
0.000114021
0.000271544
0.000243536
0.000326359
0.000244068
0.000253596
0.000209005
0.000258145
0.000379027
0.000220596
0.000390009
0.000172554
0.000378633
0.000288594
0.000469207
0.000152402
0.000433262
0.00017865
0.000421606
0.00013004
0.000447718
0.000114096
0.00043897
7.91409e-05
0.000452601
2.37545e-05
0.000461096
-2.50527e-05
0.000450276
-4.49748e-05
0.000399154
-7.61427e-05
0.000366022
-0.000142422
0.00033373
-0.000112735
0.000181409
-0.000139238
-0.00022229
0.000214948
1.00747e-05
0.000490509
2.3979e-05
0.000254815
0.000151957
0.000288411
0.000167737
0.000255764
0.000230133
0.000263963
0.000247679
0.00023605
0.000286022
0.000219803
0.000311006
0.000195611
0.000336081
0.000147479
0.000361422
0.000263253
0.000395225
0.000118599
0.00037035
0.000203525
0.000379204
0.000121186
0.000389486
0.000103813
0.000392087
7.65399e-05
0.00040615
9.69134e-06
0.000378939
2.15829e-06
0.000343126
-9.16086e-06
0.000340445
-7.34619e-05
0.000308541
-0.000110518
0.000277068
-8.12619e-05
0.00028627
-0.000148439
-9.99555e-05
0.000163936
2.32536e-05
0.000467256
4.37615e-05
0.000234307
8.19225e-05
0.00025025
0.000112531
0.000225156
0.000173792
0.000202702
0.000209068
0.000200773
0.000234685
0.000194186
0.000252629
0.000177668
0.000263254
0.000136853
0.000277576
0.000248931
0.000176264
0.000219911
0.000294354
8.54349e-05
0.000330355
8.51853e-05
0.00031858
0.000115588
0.000312998
8.21217e-05
0.000254754
6.79353e-05
0.000251995
4.91696e-06
0.00031353
-7.06956e-05
0.000266394
-2.6326e-05
0.000239441
-8.35649e-05
0.000256208
-9.80291e-05
0.000235328
-0.000127559
-0.000140432
0.000275804
4.91353e-05
0.00041812
7.40395e-05
0.000209403
0.000107245
0.000217045
0.000134998
0.000197403
0.000158436
0.000179264
0.000183225
0.000175984
0.000206708
0.000170703
0.000219576
0.0001648
0.000229326
0.000127103
0.000250886
0.000227371
0.000268949
0.000201849
0.000267237
8.71467e-05
0.000277167
7.52552e-05
0.00028077
0.000111985
0.000272872
9.00205e-05
0.000305816
3.49909e-05
0.000279547
3.11858e-05
0.00023329
-2.44382e-05
0.000223371
-1.64069e-05
0.000211313
-7.15075e-05
0.00020311
-8.98256e-05
0.000186657
-0.000111105
-0.000153512
0.000199737
5.5248e-05
0.000362872
6.23919e-05
0.000202259
8.72925e-05
0.000192144
0.000112522
0.000172173
0.000130278
0.000161508
0.000144971
0.000161291
0.000165663
0.00015001
0.000185532
0.000144932
0.000199796
0.000112839
0.000215378
0.000211788
0.000222235
0.000194993
0.000213259
9.6123e-05
0.000204787
8.37271e-05
0.000237176
7.95957e-05
0.000224762
0.000102434
0.000165648
9.41051e-05
0.000169089
2.77455e-05
0.000155018
-1.03677e-05
0.000193295
-5.46838e-05
0.000156946
-3.51582e-05
0.000151887
-8.47667e-05
0.000138149
-9.73675e-05
-0.000102757
8.73937e-05
9.24548e-05
0.000270417
8.18867e-05
0.000212827
8.60803e-05
0.000187951
9.32534e-05
0.000165
0.000101374
0.000153387
0.000109526
0.000153139
0.000113623
0.000145914
0.000121141
0.000137414
9.94685e-05
0.000134512
0.000203611
0.000107646
0.000210596
0.000188008
0.000203528
0.000103191
0.000198643
8.86124e-05
0.000197728
8.05109e-05
0.000190422
0.00010974
0.000226117
5.84101e-05
0.000227567
2.62962e-05
0.000198537
1.86616e-05
0.000167075
-2.32212e-05
0.000155108
-2.31913e-05
0.000152853
-8.25116e-05
0.000124394
-6.89088e-05
-0.000141511
0.000163149
3.54438e-05
0.000234973
5.78594e-05
0.000190411
6.75032e-05
0.000178307
7.61986e-05
0.000156305
8.32593e-05
0.000146327
9.41072e-05
0.000142291
0.000103658
0.000136363
0.000117657
0.000123414
0.000133129
0.00011904
0.00014572
9.50552e-05
0.000157702
0.000176025
0.000157923
0.00010297
0.0001678
7.87362e-05
0.000175871
7.2439e-05
0.000172792
0.000112819
0.000152629
7.85725e-05
9.98834e-05
7.90423e-05
0.00010325
1.52948e-05
8.76228e-05
-7.59386e-06
0.000106002
-4.15706e-05
0.000124678
-0.000101188
0.000149526
-9.37563e-05
-0.000110998
0.000119013
2.23011e-05
0.000212672
4.2265e-05
0.000170447
5.3879e-05
0.000166693
6.22376e-05
0.000147946
7.01726e-05
0.000138392
7.87318e-05
0.000133732
8.51984e-05
0.000129896
8.72233e-05
0.000121389
9.17896e-05
0.000114474
8.11041e-05
0.000105741
0.000162707
9.44213e-05
0.000119135
0.000146542
0.00012712
7.07513e-05
7.58397e-05
0.000123719
7.60732e-05
0.000112586
8.03805e-05