/*--------------------------------*- C++ -*----------------------------------*\
| =========                 |                                                 |
| \\      /  F ield         | foam-extend: Open Source CFD                    |
|  \\    /   O peration     | Version:     4.1                                |
|   \\  /    A nd           | Web:         http://www.foam-extend.org         |
|    \\/     M anipulation  |                                                 |
\*---------------------------------------------------------------------------*/
FoamFile
{
    version     2.0;
    format      ascii;
    class       volScalarField;
    location    "0.1";
    object      alpha1;
}
// * * * * * * * * * * * * * * * * * * * * * * * * * * * * * * * * * * * * * //

dimensions      [0 0 0 0 0 0 0];

internalField   nonuniform List<scalar> 
2268
(
1
1
1
1
1
1
0.999992
0.999954
0.999958
1
1
1
1
1
1
1
0.99459
0.963996
0.877317
0.721892
0.526404
0.363291
0.180057
1
1
1
1
1
1
0.999992
0.999954
0.999946
1
1
1
1
1
1
0.998595
0.983651
0.926668
0.762968
0.508736
0.311466
0.251042
0.150991
1
1
1
1
1
1
0.999992
0.999954
0.999933
1
1
1
1
1
1
0.989792
0.97134
0.92388
0.799291
0.563368
0.309564
0.201637
0.128276
1
1
1
1
1
1
0.999992
0.999954
0.999926
1
1
1
1
1
0.996413
0.974695
0.940766
0.874722
0.727794
0.455928
0.221661
0.141965
0.105113
1
1
1
1
1
1
0.999992
0.999952
0.999927
1
1
1
1
1
0.989182
0.950602
0.886458
0.777908
0.596725
0.350488
0.171074
0.107694
0.0870972
1
1
1
1
1
1
0.999992
0.999951
0.999931
1
1
1
1
1
0.977498
0.912703
0.799307
0.621202
0.396913
0.203638
0.0989307
0.0746343
0.0719504
1
1
1
1
1
1
0.999993
0.999951
0.999935
1
1
1
1
0.997099
0.959518
0.857611
0.682698
0.455659
0.261496
0.141445
0.0744107
0.0539075
0.0599819
1
1
1
1
1
1
0.999993
0.999951
0.999939
1
1
1
1
0.991832
0.935193
0.788326
0.547018
0.303275
0.152499
0.0761627
0.0464781
0.0388431
0.0502994
0
8.83363e-11
1.01262e-10
2.64141e-11
2.16038e-12
0
0
0
8.88178e-16
1.11022e-16
1.16573e-15
1.11022e-15
1.16573e-15
2.38698e-15
1.88738e-15
9.99201e-16
9.99201e-16
1.72085e-15
2.38698e-15
0
0
0
2.33485e-11
8.47727e-12
8.1718e-13
0
0
0
6.10623e-16
1.11022e-15
1.05471e-15
6.66134e-16
2.22045e-15
1.94289e-15
6.66134e-16
9.99201e-16
1.83187e-15
2.66454e-15
0
0
0
0
4.96736e-12
2.81419e-12
2.30038e-13
0
0
9.4369e-16
1.66533e-15
1.05471e-15
7.21645e-16
2.38698e-15
1.94289e-15
9.4369e-16
2.22045e-16
1.27676e-15
2.60902e-15
0
0
0
0
0
1.49225e-12
7.03937e-13
3.83582e-14
0
7.21645e-16
1.22125e-15
1.11022e-15
3.88578e-16
2.44249e-15
2.10942e-15
6.10623e-16
1.66533e-16
7.77156e-16
2.33147e-15
1.20297e-08
2.68594e-09
1.63802e-09
3.13659e-11
0
0
5.32407e-13
1.36113e-13
3.83027e-15
4.44089e-16
1.72085e-15
1.66533e-15
4.44089e-16
2.498e-15
1.55431e-15
8.88178e-16
3.33067e-16
1.22125e-15
2.10942e-15
3.64346e-08
0
3.85145e-09
1.60361e-09
3.8173e-11
0
0
1.60816e-13
2.08167e-14
1.05471e-15
1.38778e-15
1.60982e-15
3.88578e-16
2.38698e-15
1.88738e-15
2.16493e-15
1.05471e-15
1.05471e-15
2.05391e-15
9.25464e-08
0
0
2.44876e-09
6.27891e-10
0
0
0
3.53606e-14
3.33067e-15
1.11022e-15
2.16493e-15
9.4369e-16
2.05391e-15
2.77556e-15
1.88738e-15
1.22125e-15
8.32667e-16
1.77636e-15
4.79805e-07
0
0
0
1.34868e-09
1.0669e-10
0
0
1.83742e-14
5.93969e-15
1.33227e-15
2.33147e-15
1.77636e-15
1.44329e-15
2.27596e-15
2.33147e-15
1.60982e-15
1.05471e-15
1.88738e-15
1
1
1
1
1
1
0.999993
0.999945
0.999943
1
1
1
1
0.981411
0.889831
0.668038
0.36139
0.173241
0.0840233
0.0400958
0.0213042
0.0197057
0.0311772
1
1
1
1
1
1
0.99999
0.999929
0.99995
1
1
1
1
0.961414
0.807003
0.490071
0.189291
0.0694811
0.0237005
0.0113152
0.0066337
0.0055064
0.0190237
1
1
1
1
1
1
0.999986
0.999917
0.999973
1
1
1
0.997965
0.91402
0.639976
0.285579
0.103687
0.0383408
0.0147862
0.00594684
0.00247749
0.00151697
0.0147058
1
1
1
1
1
1
0.999981
0.999909
1
1
1
1
0.986933
0.84382
0.468272
0.157732
0.0444122
0.0106926
0.00254064
0.00105548
0.000443252
0.000520478
0.0104514
1
1
1
1
1
0.999999
0.999973
0.999897
1
1
1
1
0.965125
0.726374
0.286766
0.0716322
0.0158057
0.00238789
0.000257049
6.90963e-05
1.09593e-05
0.000293991
0.00663825
1
1
1
1
1
0.999998
0.999965
0.99989
1
1
1
0.999577
0.924111
0.559771
0.151527
0.0260082
0.00367386
0.000241548
0
0
0
8.89006e-05
0.00228666
1
1
1
1
1
0.999997
0.999956
0.999888
1
1
1
0.985896
0.848452
0.366788
0.0659429
0.00409265
0
0
0
8.56931e-06
0
1.54725e-05
0.00067022
1
1
1
1
1
0.999995
0.999941
0.999881
1
1
1
0.962157
0.718532
0.201908
0.0176043
0
0
0
3.26129e-05
9.95789e-06
0
2.487e-05
0.000363062
0.99999
0.999988
0.999984
0.999978
0.999968
0.999943
0.999852
0.999789
1
1
1
0.931166
0.550834
0.0974013
0
0
0
6.64669e-05
3.62814e-05
5.87507e-06
0
1.15267e-05
0.000198802
0.999804
0.999788
0.999756
0.999712
0.999633
0.999512
0.99926
0.999176
1
1
1
0.897231
0.394138
0.0461514
0
0
0
0.000109554
3.67782e-05
3.69412e-06
0
2.5133e-06
5.30056e-05
0.9985
0.998417
0.998252
0.998019
0.997617
0.997068
0.996194
0.995962
0.999769
1
1
0.868604
0.304868
0.0280733
0
0
0
0.000119777
3.7262e-05
2.46734e-06
0
0
6.73789e-06
0.992054
0.991721
0.991081
0.990174
0.988679
0.986691
0.984112
0.983552
0.99612
1
1
0.856228
0.354349
0.0416082
0
0
0
0.000100686
4.23228e-05
1.85319e-06
0
0
4.60966e-07
0.967319
0.966264
0.964291
0.961479
0.957054
0.951464
0.945339
0.943623
0.978136
0.999818
0.990054
0.768008
0.262884
0.0412021
0.0117269
0
0
0
4.90443e-05
3.98253e-06
0
0
1.49013e-08
0.889653
0.886887
0.881744
0.874452
0.863492
0.851164
0.839265
0.835142
0.912917
0.952842
0.957826
0.721496
0.264351
0.0914591
0.025374
0
0
0
2.8262e-05
4.74649e-06
0
0
3.53749e-09
0.682448
0.676458
0.665228
0.6498
0.628174
0.608473
0.592724
0.589733
0.702435
0.796376
0.869294
0.818154
0.410385
0.117727
0.0228809
0
0
0
2.75267e-05
5.08981e-06
0
0
2.10522e-09
0.316961
0.311341
0.300615
0.286997
0.269837
0.25767
0.249443
0.252302
0.333535
0.414701
0.535676
0.472832
0.268417
0.0470857
0.00485019
0
0
0
2.51732e-05
3.64696e-06
0
0
2.09053e-09
0.0828067
0.0809729
0.0772222
0.0727681
0.0676205
0.0645406
0.0631138
0.065636
0.0908347
0.119891
0.162883
0.146888
0.0739923
0.0103259
0
0
0
0
2.14693e-05
2.08356e-06
0
0
1.8474e-09
0.0102321
0.00987102
0.00911602
0.00826578
0.00726193
0.00675541
0.00666758
0.0073108
0.0124831
0.0196514
0.0285686
0.0245161
0.00826356
0
0
0
0
8.90202e-06
1.78944e-05
1.4581e-06
0
0
1.22651e-09
0
0
0
0
0
0
0
0
0
0
0.000251723
0
0
0
0
0
0
7.97481e-06
1.15839e-05
8.22693e-07
0
0
0
0
0
0
0
0
0
0
0
0
0
0
0
0
0
0
0
0
1.03096e-05
6.48972e-06
4.64471e-07
0
0
0
0
0
0
0
0
0
0
0
0
0
0
0
0
0
0
0
0
1.02349e-05
3.1261e-06
1.14635e-07
0
0
3.77838e-10
0
0
0
0
0
0
0
0
0
0
0
0
0
0
0
0
4.60816e-06
6.46526e-06
1.05685e-06
0
0
0
1.21677e-09
5.2843e-05
5.30839e-05
5.3063e-05
5.34046e-05
5.41012e-05
5.54104e-05
5.53854e-05
5.29831e-05
4.45164e-05
3.43551e-05
2.44521e-05
3.1455e-05
1.59348e-05
5.8102e-06
3.97015e-06
3.26439e-06
3.55695e-06
1.54689e-06
7.7978e-08
0
0
3.63743e-10
1.0471e-09
2.24981e-05
2.19827e-05
2.18712e-05
2.22573e-05
2.31789e-05
2.56868e-05
2.97508e-05
3.72654e-05
4.27048e-05
4.25988e-05
2.68667e-05
1.56645e-05
6.90617e-06
2.92647e-06
1.63642e-06
1.11277e-06
9.59478e-07
1.01047e-07
0
0
0
1.56718e-09
4.03508e-10
2.10529e-06
2.02765e-06
2.03717e-06
2.13513e-06
2.27333e-06
2.71767e-06
3.41143e-06
5.37703e-06
7.63655e-06
8.27798e-06
4.34657e-06
1.5493e-06
1.72483e-07
0
0
0
4.0635e-08
0
0
0
1.43145e-09
6.73124e-10
4.89676e-11
0
0
0
0
0
0
0
0
3.85433e-08
1.36275e-07
0
0
0
0
0
0
0
0
0
1.10392e-09
5.66826e-10
6.65161e-11
0
0
0
0
0
0
0
0
0
0
0
0
0
0
0
7.03819e-10
3.89678e-09
7.21138e-10
8.38676e-11
6.31068e-10
3.28948e-10
3.86274e-11
0
0
0
0
0
0
0
0
0
0
0
0
0
0
4.29314e-09
8.79293e-09
4.89679e-09
1.96558e-09
4.52173e-10
1.51554e-10
7.0382e-11
0
0
0
0
4.96208e-09
5.0723e-09
5.21759e-09
5.76921e-09
6.08029e-09
6.3906e-09
5.09876e-09
2.73968e-09
8.94219e-10
7.95482e-10
4.21454e-09
5.95403e-09
4.97833e-09
1.97803e-09
4.92446e-10
0
0
0
0
0
0
1.58706e-13
3.02203e-13
9.0117e-10
9.29812e-10
9.92876e-10
1.16719e-09
1.3587e-09
1.75718e-09
2.33958e-09
2.80206e-09
2.95796e-09
2.57891e-09
2.02409e-09
1.3801e-09
5.94358e-10
0
0
0
0
0
0
2.644e-13
3.27183e-13
1.96176e-13
4.09672e-14
0
0
9.42635e-13
1.26509e-11
2.41426e-11
6.22213e-11
1.52095e-10
2.55895e-10
3.18547e-10
2.86287e-10
1.49415e-10
2.27097e-11
0
0
0
0
9.29146e-13
2.42645e-12
9.20319e-13
2.19103e-13
4.59632e-14
2.83107e-15
0
0
0
0
0
0
0
0
0
0
0
0
0
0
0
0
2.27024e-12
1.50674e-12
4.96492e-13
3.90243e-14
0
0
0
0
0
0
0
0
0
0
0
0
0
0
0
0
0
8.72913e-13
1.24378e-12
5.82923e-13
1.21403e-13
0
0
0
0
2.498e-15
1.72085e-15
4.23661e-13
4.25604e-13
4.23939e-13
4.20441e-13
4.38927e-13
4.15779e-13
2.55629e-13
0
0
0
1.02141e-14
3.02869e-13
4.9738e-13
3.60156e-13
1.53211e-13
5.88418e-15
0
0
0
2.60902e-15
1.22125e-15
4.44089e-16
5.55112e-16
1.22624e-13
1.27454e-13
1.33449e-13
1.43663e-13
1.60594e-13
1.8896e-13
2.21878e-13
2.39919e-13
2.26319e-13
1.97009e-13
1.75804e-13
1.40998e-13
8.97615e-14
2.03171e-14
0
0
0
0
1.16573e-15
6.10623e-16
4.996e-16
4.44089e-16
1.16573e-15
3.77476e-15
7.43849e-15
6.93889e-15
6.38378e-15
7.10543e-15
1.11577e-14
1.42664e-14
1.9873e-14
2.36478e-14
2.21489e-14
1.43219e-14
7.93809e-15
0
0
0
0
1.11022e-15
4.44089e-16
2.55351e-15
1.9984e-15
4.996e-16
2.27596e-15
3.05311e-15
0
2.55351e-15
1.66533e-15
2.77556e-16
0
0
0
0
0
0
0
0
0
0
6.10623e-16
3.9968e-15
3.33067e-15
2.77556e-16
3.33067e-16
1.72085e-15
9.99201e-16
0
2.77556e-15
1.11022e-15
2.77556e-15
2.33147e-15
1.4988e-15
0
0
2.38698e-15
2.60902e-15
2.77556e-16
0
5.55112e-16
2.16493e-15
2.38698e-15
1.83187e-15
0
3.33067e-16
2.83107e-15
1.16573e-15
1.9984e-15
1.11022e-15
3.55271e-15
2.33147e-15
2.22045e-15
0
6.10623e-16
0
1.88738e-15
3.10862e-15
2.44249e-15
6.10623e-16
6.10623e-16
6.66134e-16
0
2.77556e-15
2.66454e-15
3.10862e-15
1.94289e-15
6.10623e-16
0
1.05471e-15
2.60902e-15
3.55271e-15
2.83107e-15
2.88658e-15
0
1.66533e-16
0
0
0
0
2.72005e-15
2.38698e-15
7.77156e-16
7.77156e-16
1.66533e-15
1.66533e-16
2.10942e-15
1.44329e-15
2.44249e-15
2.60902e-15
1.11022e-15
1.4988e-15
1.33227e-15
2.16493e-15
2.83107e-15
4.05231e-15
1.22125e-15
0
6.10623e-16
6.10623e-16
0
8.88178e-16
1.27676e-15
1.38778e-15
2.05391e-15
1.33227e-15
1.55431e-15
2.60902e-15
1.9984e-15
3.10862e-15
1.55431e-15
0
2.498e-15
2.83107e-15
1.44329e-15
0
3.27516e-15
2.60902e-15
3.33067e-15
1.77636e-15
2.66454e-15
8.88178e-16
2.22045e-15
0
1.33227e-15
1.88738e-15
2.05391e-15
2.72005e-15
1.83187e-15
2.33147e-15
1.44329e-15
2.498e-15
3.33067e-15
6.10623e-16
1.55431e-15
6.66134e-16
3.33067e-16
0
4.44089e-16
2.44249e-15
6.66134e-16
2.9976e-15
9.99201e-16
3.05311e-15
2.77556e-15
0.00259978
0
0
0
0.00653276
0.000512724
0
0
0.00756548
0.00202266
0.000177763
8.82787e-05
0.00794466
0.00545396
0.00289924
0.00166835
0.00692357
0.00614811
0.00497726
0.0038648
0.00454618
0.00522628
0.0048025
0.00423938
0.00239285
0.00372824
0.00410548
0.00387974
0.00173526
0.00264419
0.00306482
0.00296536
0.000957681
0.00132739
0.00151886
0.00140025
0.000265433
0.000358842
0.000405926
0.000344076
4.07117e-05
5.58773e-05
6.3011e-05
4.92306e-05
3.91043e-06
5.4364e-06
5.97796e-06
4.23492e-06
2.57855e-07
3.50157e-07
3.60347e-07
2.12626e-07
1.66738e-08
1.63885e-08
1.23883e-08
3.34329e-09
6.26033e-09
2.72862e-09
2.83421e-10
0
5.07854e-09
1.94051e-09
8.18772e-11
0
3.98207e-09
1.53505e-09
7.06909e-11
0
3.08323e-09
1.30275e-09
1.22816e-10
0
2.18809e-09
1.06596e-09
1.71638e-10
0
1.51871e-09
7.73022e-10
1.37779e-10
0
1.06611e-09
4.74303e-10
6.1711e-11
0
6.43495e-10
1.82524e-10
0
0
2.68893e-10
1.33009e-11
0
0
3.04512e-11
0
0
0
0
0
0
0
0
0
1.16018e-14
1.09263e-12
0
5.19529e-13
7.50122e-13
4.47642e-13
4.38205e-13
3.69538e-13
1.7214e-13
3.56382e-14
1.2601e-13
3.60267e-14
0
0
0
0
0
0
0
3.88578e-16
1.33227e-15
2.05391e-15
0
4.996e-16
4.44089e-16
6.66134e-16
1.66533e-15
2.10942e-15
2.38698e-15
3.05311e-15
7.77156e-16
2.16493e-15
2.66454e-15
1.94289e-15
1.22125e-15
8.32667e-16
1.16573e-15
2.44249e-15
1.88738e-15
4.996e-16
7.21645e-16
6.66134e-16
3.16414e-15
2.38698e-15
2.27596e-15
2.72005e-15
2.33147e-15
2.60902e-15
2.88658e-15
2.72005e-15
1.27676e-15
7.77156e-16
2.05391e-15
3.05311e-15
1.11022e-15
1.55431e-15
2.22045e-15
2.88658e-15
3.88578e-16
0
2.77556e-16
1.38778e-15
5.55112e-16
0
0
0
3.20715e-06
2.02059e-06
0
0
0
4.82052e-10
9.67432e-12
0
0
9.4369e-15
2.27596e-15
1.66533e-15
1.11022e-15
2.05391e-15
3.05311e-15
2.16493e-15
9.99201e-16
2.27596e-15
1.94289e-15
2.07473e-05
2.74932e-05
1.63917e-06
0
0
1.08556e-09
1.52115e-10
0
0
0
4.55191e-15
0
1.66533e-16
2.94209e-15
2.27596e-15
5.44009e-15
4.44089e-16
2.55351e-15
3.4972e-15
0.000177983
0.000136894
1.52412e-05
0
0
0
3.42848e-10
2.3368e-11
0
0
2.83107e-15
1.44329e-15
0
3.88578e-15
3.77476e-15
2.27596e-15
2.60902e-15
3.4972e-15
3.33067e-16
0.00114852
0.000512728
6.41607e-05
1.65311e-06
0
0
4.51846e-11
4.57658e-11
1.56347e-12
0
0
2.16493e-15
6.10623e-16
3.44169e-15
1.72085e-15
2.10942e-15
8.32667e-16
1.38778e-15
1.44329e-15
0.00271835
0.00102335
0.000161775
9.97207e-06
8.26849e-09
0
0
4.48246e-11
2.60247e-12
0
0
3.33067e-16
4.996e-16
9.4369e-16
6.66134e-16
1.27676e-15
2.66454e-15
1.11022e-15
1.60982e-15
0.00309959
0.00122746
0.000272867
2.24338e-05
6.5844e-07
0
0
5.78043e-12
2.35179e-12
1.2268e-14
0
1.27676e-15
2.33147e-15
1.77636e-15
5.55112e-16
1.60982e-15
3.05311e-15
1.60982e-15
1.11022e-16
0.00286525
0.000961569
0.000160554
1.02243e-05
1.68606e-07
0
0
1.61641e-11
9.66616e-13
0
1.77636e-15
2.66454e-15
3.21965e-15
9.4369e-16
1.27676e-15
2.16493e-15
3.44169e-15
2.33147e-15
1.66533e-16
0.00192205
0.000423167
5.23737e-05
3.30293e-06
3.75088e-08
0
0
5.33285e-12
9.83102e-14
0
6.10623e-16
0
4.44089e-16
2.83107e-15
1.9984e-15
1.94289e-15
2.60902e-15
1.55431e-15
3.16414e-15
0.000622505
9.0439e-05
7.18377e-06
1.99962e-07
0
0
1.46167e-11
1.12066e-12
0
1.44329e-15
2.44249e-15
1.44329e-15
0
3.05311e-15
1.38778e-15
1.77636e-15
2.27596e-15
3.16414e-15
5.05151e-15
0.00010638
1.02707e-05
3.87572e-07
0
0
7.49684e-12
4.47881e-12
4.69624e-14
0
2.22045e-15
2.38698e-15
3.38618e-15
7.21645e-16
9.99201e-16
1.22125e-15
2.22045e-16
1.22125e-15
9.4369e-16
3.05311e-15
1.04318e-05
5.05899e-07
0
0
0
1.00016e-11
3.42726e-13
0
1.9984e-15
6.66134e-16
2.38698e-15
3.16414e-15
1.16573e-15
6.66134e-16
1.38778e-15
8.88178e-16
1.05471e-15
7.77156e-16
3.44169e-15
5.12812e-07
0
0
0
1.54418e-11
1.11061e-12
0
2.77556e-16
2.55351e-15
1.66533e-16
1.83187e-15
1.55431e-15
1.05471e-15
1.66533e-16
0
7.21645e-16
1.77636e-15
6.10623e-16
8.32667e-16
0
0
0
1.72489e-11
1.79629e-12
9.60343e-15
0
1.83187e-15
6.10623e-16
8.88178e-16
1.94289e-15
2.72005e-15
2.22045e-15
3.44169e-15
8.32667e-16
3.33067e-16
1.77636e-15
2.9976e-15
1.27676e-15
0
0
1.45909e-11
2.18697e-12
3.59712e-14
0
2.94209e-15
1.55431e-15
1.66533e-15
5.55112e-17
1.9984e-15
2.10942e-15
0
5.55112e-16
0
1.83187e-15
1.9984e-15
1.38778e-15
0
0
5.41911e-12
3.0162e-12
2.18436e-13
0
0
3.05311e-15
1.11022e-15
1.4988e-15
2.60902e-15
2.83107e-15
2.60902e-15
9.99201e-16
3.88578e-16
8.88178e-16
1.60982e-15
1.22125e-15
1.16573e-15
2.94209e-15
0
1.30174e-12
1.35375e-12
9.68114e-14
0
5.55112e-16
3.21965e-15
1.16573e-15
1.9984e-15
3.10862e-15
2.05391e-15
2.77556e-15
2.83107e-15
6.10623e-16
1.4988e-15
1.9984e-15
1.94289e-15
1.44329e-15
3.4972e-15
0
3.82805e-13
1.11949e-12
6.58917e-14
0
2.10942e-15
3.83027e-15
1.77636e-15
2.88658e-15
1.88738e-15
0
1.05471e-15
2.66454e-15
2.38698e-15
2.77556e-15
4.44089e-16
2.66454e-15
6.10623e-16
1.4988e-15
0
0
8.82572e-13
5.11258e-14
0
2.55351e-15
2.44249e-15
2.72005e-15
1.22125e-15
1.60982e-15
1.66533e-15
2.498e-15
1.9984e-15
2.66454e-15
3.71925e-15
2.44249e-15
3.10862e-15
1.9984e-15
1.05471e-15
0
0
6.20504e-13
4.42424e-14
0
1.11022e-16
4.44089e-16
1.4988e-15
2.44249e-15
1.88738e-15
3.05311e-15
5.55112e-16
2.88658e-15
2.27596e-15
3.27516e-15
2.55351e-15
2.60902e-15
1.83187e-15
2.83107e-15
0
0
4.33931e-13
3.33622e-14
0
1.11022e-15
0
1.33227e-15
1.33227e-15
8.32667e-16
2.10942e-15
3.33067e-16
2.10942e-15
1.94289e-15
2.72005e-15
1.44329e-15
1.60982e-15
1.22125e-15
3.55271e-15
0
0
2.96652e-13
1.81521e-14
8.88178e-16
2.88658e-15
1.11022e-16
2.44249e-15
2.05391e-15
3.05311e-15
2.55351e-15
3.33067e-16
2.33147e-15
2.10942e-15
3.16414e-15
1.94289e-15
2.44249e-15
3.55271e-15
1.83187e-15
0
3.60934e-13
1.90736e-13
5.38458e-15
4.996e-16
1.4988e-15
4.44089e-16
1.4988e-15
2.16493e-15
3.55271e-15
1.22125e-15
5.55112e-16
2.27596e-15
1.05471e-15
0
7.77156e-16
2.05391e-15
3.83027e-15
3.21965e-15
0
5.74041e-13
9.09828e-14
0
4.996e-16
2.22045e-15
1.72085e-15
1.72085e-15
4.16334e-15
3.16414e-15
4.996e-16
1.27676e-15
2.33147e-15
1.38778e-15
0
5.55112e-16
2.27596e-15
9.4369e-16
2.66454e-15
3.57381e-13
4.13169e-13
1.94844e-14
0
8.88178e-16
1.77636e-15
1.27676e-15
8.88178e-16
1.72085e-15
2.498e-15
1.66533e-15
2.55351e-15
1.77636e-15
1.77636e-15
1.83187e-15
6.66134e-16
1.27676e-15
9.4369e-16
2.55351e-15
9.97979e-13
1.29063e-13
0
0
1.77636e-15
1.94289e-15
3.88578e-16
2.22045e-16
1.55431e-15
3.38618e-15
1.94289e-15
4.82947e-15
2.38698e-15
4.996e-16
3.44169e-15
1.55431e-15
1.11022e-15
1.72085e-15
4.16334e-15
4.18332e-13
1.05471e-15
0
2.16493e-15
3.16414e-15
3.05311e-15
1.38778e-15
0
2.22045e-15
2.88658e-15
2.55351e-15
1.77636e-15
5.55112e-16
7.77156e-16
2.33147e-15
2.22045e-15
0
1.72085e-15
1.38778e-15
3.2141e-14
0
1.11022e-16
1.38778e-15
1.83187e-15
9.99201e-16
2.77556e-16
1.4988e-15
2.55351e-15
3.4972e-15
2.22045e-15
7.21645e-16
8.88178e-16
8.32667e-16
1.72085e-15
3.33067e-15
1.4988e-15
1.22125e-15
8.32667e-16
0
0
1.9984e-15
1.38778e-15
1.27676e-15
2.27596e-15
1.16573e-15
1.38778e-15
2.10942e-15
2.9976e-15
1.4988e-15
2.94209e-15
1.60982e-15
2.55351e-15
1.38778e-15
3.05311e-15
1.94289e-15
9.4369e-16
0
0
1.16573e-15
1.38778e-15
2.88658e-15
1.9984e-15
1.55431e-15
1.16573e-15
1.4988e-15
1.83187e-15
8.88178e-16
1.4988e-15
1.33227e-15
1.16573e-15
7.21645e-16
0
1.44329e-15
1.60982e-15
6.66134e-16
6.66134e-16
1.83187e-15
2.33147e-15
1.16573e-15
2.16493e-15
1.11022e-15
2.77556e-15
1.11022e-15
2.60902e-15
2.27596e-15
2.22045e-15
2.72005e-15
2.38698e-15
6.66134e-16
8.88178e-16
0
2.88658e-15
2.94209e-15
3.16414e-15
1.4988e-15
1.11022e-15
1.05471e-15
2.33147e-15
2.88658e-15
1.4988e-15
3.05311e-15
1.9984e-15
1.16573e-15
1.83187e-15
1.94289e-15
2.33147e-15
8.32667e-16
2.77556e-16
2.05391e-15
1.22125e-15
2.94209e-15
3.27516e-15
6.66134e-16
4.996e-16
1.72085e-15
2.27596e-15
3.21965e-15
9.4369e-16
2.72005e-15
0
8.32667e-16
5.55112e-16
3.88578e-16
1.94289e-15
3.4972e-15
2.33147e-15
1.88738e-15
1.9984e-15
1.27676e-15
1.88738e-15
3.05311e-15
2.44249e-15
0
2.88658e-15
1.16573e-15
3.77476e-15
1.38778e-15
2.33147e-15
2.83107e-15
2.22045e-15
3.71925e-15
4.10783e-15
2.05391e-15
2.55351e-15
2.94209e-15
2.38698e-15
3.38618e-15
3.9968e-15
2.9976e-15
2.88658e-15
2.10942e-15
1.9984e-15
2.10942e-15
1.38778e-15
2.94209e-15
0
1.94289e-15
2.60902e-15
1.9984e-15
4.55191e-15
4.55191e-15
9.99201e-16
3.94129e-15
3.71925e-15
2.77556e-15
1.55431e-15
1.66533e-15
3.60822e-15
2.66454e-15
2.66454e-15
1.11022e-15
1.88738e-15
8.88178e-16
1.44329e-15
8.32667e-16
3.38618e-15
9.4369e-16
1.72085e-15
2.9976e-15
1.33227e-15
1.44329e-15
3.60822e-15
1.72085e-15
1.9984e-15
1.55431e-15
2.44249e-15
2.83107e-15
2.9976e-15
1.66533e-15
3.38618e-15
2.05391e-15
1.44329e-15
1.55431e-15
8.88178e-16
1.55431e-15
1.9984e-15
3.4972e-15
3.16414e-15
1.05471e-15
2.05391e-15
1.44329e-15
2.55351e-15
2.05391e-15
1.55431e-15
2.60902e-15
3.05311e-15
4.44089e-15
1.9984e-15
8.88178e-16
3.05311e-15
2.94209e-15
1.16573e-15
1.4988e-15
1.83187e-15
1.22125e-15
1.4988e-15
1.38778e-15
9.4369e-16
8.88178e-16
1.11022e-16
1.66533e-15
1.83187e-15
1.33227e-15
2.9976e-15
2.05391e-15
1.55431e-15
1.22125e-15
0
1.83187e-15
1.4988e-15
2.33147e-15
1.16573e-15
1.44329e-15
1.11022e-16
2.498e-15
4.44089e-16
2.498e-15
0
7.21645e-16
2.27596e-15
2.60902e-15
1.77636e-15
2.27596e-15
4.05231e-15
3.38618e-15
3.4972e-15
6.10623e-16
3.33067e-15
8.32667e-16
1.83187e-15
2.498e-15
2.10942e-15
1.77636e-15
2.16493e-15
1.72085e-15
1.9984e-15
4.44089e-16
1.88738e-15
2.22045e-15
2.33147e-15
5.55112e-16
1.44329e-15
1.88738e-15
0
3.05311e-15
1.11022e-16
1.22125e-15
2.77556e-16
2.72005e-15
2.94209e-15
1.22125e-15
2.66454e-15
5.55112e-16
1.11022e-15
2.22045e-15
1.22125e-15
1.22125e-15
2.498e-15
1.44329e-15
0
1.9984e-15
2.88658e-15
1.88738e-15
9.99201e-16
1.77636e-15
1.11022e-15
5.55112e-17
1.94289e-15
4.996e-16
1.22125e-15
1.83187e-15
1.16573e-15
0
1.27676e-15
1.05471e-15
1.77636e-15
3.05311e-15
3.38618e-15
0
3.88578e-16
8.32667e-16
2.38698e-15
2.94209e-15
2.44249e-15
2.44249e-15
2.55351e-15
3.44169e-15
7.21645e-16
6.10623e-16
4.44089e-16
9.99201e-16
0
1.72085e-15
1.77636e-15
2.72005e-15
4.16334e-15
2.94209e-15
0
1.60982e-15
3.66374e-15
4.44089e-16
1.60982e-15
2.83107e-15
)
;

boundaryField
{
    leftWall
    {
        type            zeroGradient;
    }
    rightWall
    {
        type            zeroGradient;
    }
    lowerWall
    {
        type            zeroGradient;
    }
    atmosphere
    {
        type            inletOutlet;
        inletValue      uniform 0;
        value           nonuniform List<scalar> 
46
(
2.22045e-15
0
1.33227e-15
1.88738e-15
2.05391e-15
2.72005e-15
1.83187e-15
2.33147e-15
1.44329e-15
2.498e-15
3.33067e-15
6.10623e-16
1.55431e-15
6.66134e-16
3.33067e-16
0
4.44089e-16
2.44249e-15
6.66134e-16
2.9976e-15
9.99201e-16
3.05311e-15
2.77556e-15
5.55112e-16
0
0
0
2.44249e-15
2.55351e-15
3.44169e-15
7.21645e-16
6.10623e-16
4.44089e-16
9.99201e-16
0
1.72085e-15
1.77636e-15
2.72005e-15
4.16334e-15
2.94209e-15
0
1.60982e-15
3.66374e-15
4.44089e-16
1.60982e-15
2.83107e-15
)
;
    }
    defaultFaces
    {
        type            empty;
    }
}


// ************************************************************************* //
