/*--------------------------------*- C++ -*----------------------------------*\
| =========                 |                                                 |
| \\      /  F ield         | foam-extend: Open Source CFD                    |
|  \\    /   O peration     | Version:     4.1                                |
|   \\  /    A nd           | Web:         http://www.foam-extend.org         |
|    \\/     M anipulation  |                                                 |
\*---------------------------------------------------------------------------*/
FoamFile
{
    version     2.0;
    format      ascii;
    class       volScalarField;
    location    "0.1";
    object      C;
}
// * * * * * * * * * * * * * * * * * * * * * * * * * * * * * * * * * * * * * //

dimensions      [0 0 0 0 0 0 0];

internalField   nonuniform List<scalar> 
2268
(
1
1
1
1
1
1
0.999985
0.999907
0.999916
1.00021
1.00144
1.00503
1.01072
1.01229
1.01119
1.00607
0.98918
0.927991
0.754634
0.443784
0.0528086
-0.273418
-0.639886
1
1
1
1
1
1
0.999985
0.999908
0.999893
1.00011
1.00123
1.00503
1.01045
1.01104
1.00804
0.997189
0.967303
0.853336
0.525936
0.017472
-0.377068
-0.497916
-0.698018
1
1
1
1
1
1
0.999985
0.999908
0.999867
1.00004
1.00122
1.00549
1.01019
1.00934
1.00192
0.979584
0.94268
0.847759
0.598582
0.126736
-0.380872
-0.596726
-0.743447
1
1
1
1
1
1
0.999985
0.999907
0.999852
1.00003
1.00144
1.00649
1.01007
1.0076
0.992825
0.94939
0.881531
0.749444
0.455589
-0.0881432
-0.556678
-0.71607
-0.789774
1
1
1
1
1
1
0.999984
0.999905
0.999853
1.00008
1.00184
1.00781
1.0101
1.00533
0.978364
0.901204
0.772917
0.555816
0.193451
-0.299024
-0.657852
-0.784612
-0.825806
1
1
1
1
1
1
0.999984
0.999903
0.999863
1.00017
1.00233
1.00915
1.01029
1.00124
0.954997
0.825407
0.598613
0.242403
-0.206174
-0.592723
-0.802139
-0.850731
-0.856099
1
1
1
1
1
1
0.999985
0.999902
0.999871
1.00027
1.00293
1.01045
1.0103
0.994198
0.919035
0.715222
0.365396
-0.0886819
-0.477009
-0.71711
-0.851179
-0.892185
-0.880036
1
1
1
1
1
1
0.999987
0.999903
0.999877
1.00039
1.00369
1.01163
1.01001
0.983664
0.870386
0.576652
0.0940367
-0.393451
-0.695003
-0.847675
-0.907044
-0.922314
-0.899401
-1
-1
-1
-1
-1
-1
-1
-1
-1
-1
-1
-1
-1
-1
-1
-1
-1
-1
-1
-1
-1
-1
-1
-1
-1
-1
-1
-1
-1
-1
-1
-1
-1
-1
-1
-1
-1
-1
-1
-1
-1
-1
-1
-1
-1
-1
-1
-1
-1
-1
-1
-1
-1
-1
-1
-1
-1
-1
-1
-1
-1
-1
-1
-1
-1
-1
-1
-1
-1
-1
-1
-1
-1
-1
-1
-1
-1
-1
-1
-1
-1
-1
-1
-1
-1
-1
-1
-1
-1
-1
-1
-1
-1
-1
-1
-1
-1
-1
-1
-1
-1
-1
-1
-1
-1
-1
-1
-1
-1
-1
-1
-1
-1
-1
-1
-1
-1
-1
-1
-1
-1
-1
-1
-1
-1
-1
-1
-1
-1
-1
-1
-1
-1
-0.999999
-1
-1
-1
-1
-1
-1
-1
-1
-1
-1
-1
-1
-1
-1
-1
-1
-1
-1
1
1
1
1
1
1
0.999987
0.999889
0.999887
1.00065
1.00532
1.01327
1.00903
0.962821
0.779662
0.336076
-0.27722
-0.653519
-0.831953
-0.919808
-0.957392
-0.960589
-0.937646
1
1
1
1
1
1
0.99998
0.999858
0.9999
1.00119
1.00873
1.01453
1.00663
0.922829
0.614005
-0.0198575
-0.621419
-0.861038
-0.952599
-0.97737
-0.986733
-0.988987
-0.961953
1
1
1
1
1
1
0.999973
0.999833
0.999945
1.00193
1.01263
1.01532
0.995931
0.828041
0.279951
-0.428843
-0.792626
-0.923318
-0.970428
-0.988106
-0.995045
-0.996966
-0.970588
1
1
1
1
1
0.999999
0.999962
0.999818
1.00004
1.00301
1.0169
1.01475
0.973866
0.687641
-0.0634556
-0.684537
-0.911176
-0.978615
-0.994919
-0.997889
-0.999113
-0.998959
-0.979097
1
1
1
1
1
0.999997
0.999947
0.999793
1.00023
1.00447
1.02041
1.01035
0.93025
0.452747
-0.426467
-0.856736
-0.968389
-0.995224
-0.999486
-0.999862
-0.999978
-0.999412
-0.986723
1
1
1
1
1
0.999996
0.99993
0.999779
1.00056
1.0065
1.02183
0.999153
0.848222
0.119543
-0.696946
-0.947984
-0.992652
-0.999517
-1.0001
-1.00001
-1.00003
-0.999822
-0.995427
1
1
1
1
1
0.999995
0.999913
0.999775
1.00103
1.00932
1.02375
0.971792
0.696904
-0.266423
-0.868114
-0.991815
-1.00156
-1.00038
-1.00002
-0.999983
-1.00001
-0.999969
-0.99866
1
1
1
1
1.00001
0.999989
0.999883
0.999761
1.00159
1.01262
1.02438
0.924314
0.437065
-0.596183
-0.964791
-1.00495
-1.00211
-1.0001
-0.999935
-0.99998
-1
-0.99995
-0.999274
0.999979
0.999975
0.999967
0.999956
0.999936
0.999886
0.999705
0.999577
1.00197
1.01567
1.02211
0.862332
0.101669
-0.805197
-1.00665
-1.00886
-1.0012
-0.999867
-0.999927
-0.999988
-1
-0.999977
-0.999602
0.999607
0.999577
0.999513
0.999424
0.999266
0.999024
0.998519
0.998352
1.00191
1.01803
1.01833
0.794462
-0.211724
-0.907697
-1.02025
-1.00776
-1.00063
-0.999781
-0.999926
-0.999993
-1
-0.999995
-0.999894
0.997
0.996835
0.996504
0.996038
0.995234
0.994136
0.992389
0.991924
0.999539
1.01938
1.01592
0.737207
-0.390265
-0.943853
-1.02295
-1.00894
-1.00081
-0.99976
-0.999925
-0.999995
-1
-1
-0.999987
0.984107
0.983443
0.982163
0.980348
0.977358
0.973382
0.968224
0.967103
0.992239
1.02098
1.02161
0.712457
-0.291302
-0.916784
-1.00843
-1.01064
-1.00193
-0.999799
-0.999915
-0.999996
-1
-1
-0.999999
0.934637
0.932528
0.928581
0.922958
0.914109
0.902928
0.890677
0.887245
0.956273
0.999636
0.980107
0.536015
-0.474231
-0.917596
-0.976546
-1.00813
-1.00349
-1.00011
-0.999902
-0.999992
-1
-1
-1
0.779306
0.773774
0.763488
0.748904
0.726983
0.702327
0.67853
0.670284
0.825834
0.905684
0.915653
0.442991
-0.471298
-0.817082
-0.949252
-1.00024
-1.00334
-1.00051
-0.999943
-0.999991
-1
-1
-1
0.364896
0.352915
0.330457
0.299599
0.256348
0.216946
0.185449
0.179465
0.40487
0.592752
0.738589
0.636309
-0.179229
-0.764545
-0.954238
-1.0003
-1.0031
-1.00042
-0.999945
-0.99999
-1
-1
-1
-0.366077
-0.377318
-0.398771
-0.426006
-0.460326
-0.48466
-0.501113
-0.495396
-0.332929
-0.170599
0.0713521
-0.0543358
-0.463166
-0.905829
-0.9903
-1.00374
-1.00196
-1.00019
-0.99995
-0.999993
-1
-1
-1
-0.834387
-0.838054
-0.845556
-0.854464
-0.864759
-0.870919
-0.873772
-0.868728
-0.818331
-0.760218
-0.674235
-0.706223
-0.852015
-0.979348
-1.00136
-1.00365
-1.001
-1.00002
-0.999957
-0.999996
-1
-1
-1
-0.979536
-0.980258
-0.981768
-0.983468
-0.985476
-0.986489
-0.986665
-0.985378
-0.975034
-0.960697
-0.942863
-0.950968
-0.983473
-1.00216
-1.00373
-1.00244
-1.00043
-0.999982
-0.999964
-0.999997
-1
-1
-1
-1.00711
-1.0071
-1.00718
-1.00728
-1.00747
-1.00757
-1.00763
-1.00764
-1.0065
-1.00385
-0.999497
-1.00018
-1.00415
-1.00508
-1.00354
-1.00173
-1.00029
-0.999984
-0.999977
-0.999998
-1
-1
-1
-1.00909
-1.00891
-1.0087
-1.00854
-1.00842
-1.00843
-1.0086
-1.0089
-1.00926
-1.00832
-1.00631
-1.00528
-1.00447
-1.00275
-1.00201
-1.00092
-1.00013
-0.999979
-0.999987
-0.999999
-1
-1
-1
-1.0024
-1.00231
-1.0022
-1.00209
-1.00203
-1.00202
-1.00214
-1.00245
-1.00311
-1.00366
-1.00335
-1.00227
-1.00131
-1.00079
-1.00053
-1.00025
-1.00002
-0.99998
-0.999994
-1
-1
-1
-1
-1.00018
-1.00017
-1.00015
-1.00014
-1.00013
-1.00013
-1.00016
-1.00022
-1.00037
-1.00049
-1.00049
-1.00028
-1.00017
-1.00014
-1.00008
-1.00002
-0.999991
-0.999987
-0.999998
-1
-1
-1
-1
-0.999894
-0.999894
-0.999894
-0.999893
-0.999892
-0.999889
-0.999889
-0.999894
-0.999911
-0.999931
-0.999951
-0.999937
-0.999968
-0.999988
-0.999992
-0.999993
-0.999993
-0.999997
-1
-1
-1
-1
-1
-0.999955
-0.999956
-0.999956
-0.999955
-0.999954
-0.999949
-0.99994
-0.999925
-0.999915
-0.999915
-0.999946
-0.999969
-0.999986
-0.999994
-0.999997
-0.999998
-0.999998
-1
-1
-1
-1
-1
-1
-0.999996
-0.999996
-0.999996
-0.999996
-0.999995
-0.999995
-0.999993
-0.999989
-0.999985
-0.999983
-0.999991
-0.999997
-1
-1
-1
-1
-1
-1
-1
-1
-1
-1
-1
-1
-1
-1
-1
-1
-1
-1
-1
-1
-1
-1
-1
-1
-1
-1
-1
-1
-1
-1
-1
-1
-1
-1
-1
-1
-1
-1
-1
-1
-1
-1
-1
-1
-1
-1
-1
-1
-1
-1
-1
-1
-1
-1
-1
-1
-1
-1
-1
-1
-1
-1
-1
-1
-1
-1
-1
-1
-1
-1
-1
-1
-1
-1
-1
-1
-1
-1
-1
-1
-1
-1
-1
-1
-1
-1
-1
-1
-1
-1
-1
-1
-1
-1
-1
-1
-1
-1
-1
-1
-1
-1
-1
-1
-1
-1
-1
-1
-1
-1
-1
-1
-1
-1
-1
-1
-1
-1
-1
-1
-1
-1
-1
-1
-1
-1
-1
-1
-1
-1
-1
-1
-1
-1
-1
-1
-1
-1
-1
-1
-1
-1
-1
-1
-1
-1
-1
-1
-1
-1
-1
-1
-1
-1
-1
-1
-1
-1
-1
-1
-1
-1
-1
-1
-1
-1
-1
-1
-1
-1
-1
-1
-1
-1
-1
-1
-1
-1
-1
-1
-1
-1
-1
-1
-1
-1
-1
-1
-1
-1
-1
-1
-1
-1
-1
-1
-1
-1
-1
-1
-1
-1
-1
-1
-1
-1
-1
-1
-1
-1
-1
-1
-1
-1
-1
-1
-1
-1
-1
-1
-1
-1
-1
-1
-1
-1
-1
-1
-1
-1
-1
-1
-1
-1
-1
-1
-1
-1
-1
-1
-1
-1
-1
-1
-1
-1
-1
-1
-1
-1
-1
-1
-1
-1
-1
-1
-1
-1
-1
-1
-1
-1
-1
-1
-1
-1
-1
-1
-1
-1
-1
-1
-1
-1
-1
-1
-1
-1
-1
-1
-1
-1
-1
-1
-1
-1
-1
-1
-1
-1
-1
-1
-1
-1
-1
-1
-1
-1
-1
-1
-1
-1
-1
-1
-1
-1
-1
-1
-1
-1
-1
-1
-1
-1
-1
-1
-1
-1
-1
-1
-1
-1
-1
-1
-1
-1
-1
-1
-1
-1
-1
-1
-1
-1
-1
-1
-1
-1
-1
-1
-1
-1
-1
-1
-1
-1
-1
-1
-1
-1
-1
-1
-1
-1
-1
-1
-1
-1
-1
-1
-1
-1
-1
-1
-1
-1
-1
-1
-1
-1
-1
-1
-1
-1
-1
-1
-1
-1
-1
-1
-1
-1
-1
-1
-1
-1
-1
-1
-1
-1
-1
-1
-1
-1
-1
-1
-1
-1
-1
-1
-1
-1
-0.9948
-1.00137
-1.00059
-1.00006
-0.986934
-0.998975
-1.0005
-1.0001
-0.984869
-0.995955
-0.999644
-0.999823
-0.984111
-0.989092
-0.994202
-0.996663
-0.986153
-0.987704
-0.990045
-0.99227
-0.990908
-0.989547
-0.990395
-0.991521
-0.995214
-0.992544
-0.991789
-0.992241
-0.996529
-0.994712
-0.99387
-0.994069
-0.998085
-0.997345
-0.996962
-0.997199
-0.999469
-0.999282
-0.999188
-0.999312
-0.999919
-0.999888
-0.999874
-0.999902
-0.999992
-0.999989
-0.999988
-0.999992
-0.999999
-0.999999
-0.999999
-1
-1
-1
-1
-1
-1
-1
-1
-1
-1
-1
-1
-1
-1
-1
-1
-1
-1
-1
-1
-1
-1
-1
-1
-1
-1
-1
-1
-1
-1
-1
-1
-1
-1
-1
-1
-1
-1
-1
-1
-1
-1
-1
-1
-1
-1
-1
-1
-1
-1
-1
-1
-1
-1
-1
-1
-1
-1
-1
-1
-1
-1
-1
-1
-1
-1
-1
-1
-1
-1
-1
-1
-1
-1
-1
-1
-1
-1
-1
-1
-1
-1
-1
-1
-1
-1
-1
-1
-1
-1
-1
-1
-1
-1
-1
-1
-1
-1
-1
-1
-1
-1
-1
-1
-1
-1
-1
-1
-1
-1
-1
-1
-1
-1
-1
-1
-1
-0.999994
-0.999996
-1
-1
-1
-1
-1
-1
-1
-1
-1
-1
-1
-1
-1
-1
-1
-1
-1
-0.999959
-0.999945
-0.999997
-1
-1
-1
-1
-1
-1
-1
-1
-1
-1
-1
-1
-1
-1
-1
-1
-0.999644
-0.999726
-0.99997
-1
-1
-1
-1
-1
-1
-1
-1
-1
-1
-1
-1
-1
-1
-1
-1
-0.997703
-0.998975
-0.999872
-0.999997
-1
-1
-1
-1
-1
-1
-1
-1
-1
-1
-1
-1
-1
-1
-1
-0.994563
-0.997953
-0.999676
-0.99998
-1
-1
-1
-1
-1
-1
-1
-1
-1
-1
-1
-1
-1
-1
-1
-0.993801
-0.997545
-0.999454
-0.999955
-0.999999
-1
-1
-1
-1
-1
-1
-1
-1
-1
-1
-1
-1
-1
-1
-0.99427
-0.998077
-0.999679
-0.99998
-1
-1
-1
-1
-1
-1
-1
-1
-1
-1
-1
-1
-1
-1
-1
-0.996156
-0.999154
-0.999895
-0.999993
-1
-1
-1
-1
-1
-1
-1
-1
-1
-1
-1
-1
-1
-1
-1
-0.998755
-0.999819
-0.999986
-1
-1
-1
-1
-1
-1
-1
-1
-1
-1
-1
-1
-1
-1
-1
-1
-0.999787
-0.999979
-0.999999
-1
-1
-1
-1
-1
-1
-1
-1
-1
-1
-1
-1
-1
-1
-1
-1
-0.999979
-0.999999
-1
-1
-1
-1
-1
-1
-1
-1
-1
-1
-1
-1
-1
-1
-1
-1
-1
-0.999999
-1
-1
-1
-1
-1
-1
-1
-1
-1
-1
-1
-1
-1
-1
-1
-1
-1
-1
-1
-1
-1
-1
-1
-1
-1
-1
-1
-1
-1
-1
-1
-1
-1
-1
-1
-1
-1
-1
-1
-1
-1
-1
-1
-1
-1
-1
-1
-1
-1
-1
-1
-1
-1
-1
-1
-1
-1
-1
-1
-1
-1
-1
-1
-1
-1
-1
-1
-1
-1
-1
-1
-1
-1
-1
-1
-1
-1
-1
-1
-1
-1
-1
-1
-1
-1
-1
-1
-1
-1
-1
-1
-1
-1
-1
-1
-1
-1
-1
-1
-1
-1
-1
-1
-1
-1
-1
-1
-1
-1
-1
-1
-1
-1
-1
-1
-1
-1
-1
-1
-1
-1
-1
-1
-1
-1
-1
-1
-1
-1
-1
-1
-1
-1
-1
-1
-1
-1
-1
-1
-1
-1
-1
-1
-1
-1
-1
-1
-1
-1
-1
-1
-1
-1
-1
-1
-1
-1
-1
-1
-1
-1
-1
-1
-1
-1
-1
-1
-1
-1
-1
-1
-1
-1
-1
-1
-1
-1
-1
-1
-1
-1
-1
-1
-1
-1
-1
-1
-1
-1
-1
-1
-1
-1
-1
-1
-1
-1
-1
-1
-1
-1
-1
-1
-1
-1
-1
-1
-1
-1
-1
-1
-1
-1
-1
-1
-1
-1
-1
-1
-1
-1
-1
-1
-1
-1
-1
-1
-1
-1
-1
-1
-1
-1
-1
-1
-1
-1
-1
-1
-1
-1
-1
-1
-1
-1
-1
-1
-1
-1
-1
-1
-1
-1
-1
-1
-1
-1
-1
-1
-1
-1
-1
-1
-1
-1
-1
-1
-1
-1
-1
-1
-1
-1
-1
-1
-1
-1
-1
-1
-1
-1
-1
-1
-1
-1
-1
-1
-1
-1
-1
-1
-1
-1
-1
-1
-1
-1
-1
-1
-1
-1
-1
-1
-1
-1
-1
-1
-1
-1
-1
-1
-1
-1
-1
-1
-1
-1
-1
-1
-1
-1
-1
-1
-1
-1
-1
-1
-1
-1
-1
-1
-1
-1
-1
-1
-1
-1
-1
-1
-1
-1
-1
-1
-1
-1
-1
-1
-1
-1
-1
-1
-1
-1
-1
-1
-1
-1
-1
-1
-1
-1
-1
-1
-1
-1
-1
-1
-1
-1
-1
-1
-1
-1
-1
-1
-1
-1
-1
-1
-1
-1
-1
-1
-1
-1
-1
-1
-1
-1
-1
-1
-1
-1
-1
-1
-1
-1
-1
-1
-1
-1
-1
-1
-1
-1
-1
-1
-1
-1
-1
-1
-1
-1
-1
-1
-1
-1
-1
-1
-1
-1
-1
-1
-1
-1
-1
-1
-1
-1
-1
-1
-1
-1
-1
-1
-1
-1
-1
-1
-1
-1
-1
-1
-1
-1
-1
-1
-1
-1
-1
-1
-1
-1
-1
-1
-1
-1
-1
-1
-1
-1
-1
-1
-1
-1
-1
-1
-1
-1
-1
-1
-1
-1
-1
-1
-1
-1
-1
-1
-1
-1
-1
-1
-1
-1
-1
-1
-1
-1
-1
-1
-1
-1
-1
-1
-1
-1
-1
-1
-1
-1
-1
-1
-1
-1
-1
-1
-1
-1
-1
-1
-1
-1
-1
-1
-1
-1
-1
-1
-1
-1
-1
-1
-1
-1
-1
-1
-1
-1
-1
-1
-1
-1
-1
-1
-1
-1
-1
-1
-1
-1
-1
-1
-1
-1
-1
-1
-1
-1
-1
-1
-1
-1
-1
-1
-1
-1
-1
-1
-1
-1
-1
-1
-1
-1
-1
-1
-1
-1
-1
-1
-1
-1
-1
-1
-1
-1
-1
-1
-1
-1
-1
-1
-1
-1
-1
-1
-1
)
;

boundaryField
{
    leftWall
    {
        type            zeroGradient;
    }
    rightWall
    {
        type            zeroGradient;
    }
    lowerWall
    {
        type            zeroGradient;
    }
    atmosphere
    {
        type            zeroGradient;
    }
    defaultFaces
    {
        type            empty;
    }
}


// ************************************************************************* //
