/*--------------------------------*- C++ -*----------------------------------*\
| =========                 |                                                 |
| \\      /  F ield         | foam-extend: Open Source CFD                    |
|  \\    /   O peration     | Version:     4.1                                |
|   \\  /    A nd           | Web:         http://www.foam-extend.org         |
|    \\/     M anipulation  |                                                 |
\*---------------------------------------------------------------------------*/
FoamFile
{
    version     2.0;
    format      ascii;
    class       volScalarField;
    location    "0.1";
    object      C_0;
}
// * * * * * * * * * * * * * * * * * * * * * * * * * * * * * * * * * * * * * //

dimensions      [0 0 0 0 0 0 0];

internalField   nonuniform List<scalar> 
2268
(
1
1
1
1
1
1
0.999984
0.999905
0.999916
1.00023
1.00156
1.00537
1.01107
1.01237
1.01109
1.00529
0.98635
0.918193
0.730538
0.403847
0.00450058
-0.312355
-0.660809
1
1
1
1
1
1
0.999984
0.999905
0.999892
1.00012
1.00134
1.00537
1.01074
1.01106
1.0076
0.995626
0.962293
0.835082
0.481127
-0.0358943
-0.41431
-0.527312
-0.715452
1
1
1
1
1
1
0.999985
0.999906
0.999866
1.00005
1.00132
1.00584
1.01037
1.00922
1.00087
0.976524
0.936057
0.830563
0.557067
0.0622651
-0.42436
-0.623375
-0.758836
1
1
1
1
1
1
0.999984
0.999905
0.999851
1.00004
1.00155
1.00685
1.0101
1.00733
0.990884
0.943692
0.870054
0.724613
0.402305
-0.158429
-0.596743
-0.738105
-0.803072
1
1
1
1
1
1
0.999984
0.999902
0.999852
1.0001
1.00197
1.00818
1.01016
1.00469
0.974981
0.891474
0.753371
0.519651
0.134014
-0.35817
-0.690342
-0.803353
-0.837406
1
1
1
1
1
1
0.999984
0.9999
0.999862
1.00019
1.00249
1.00951
1.01032
1.0001
0.949445
0.809448
0.566693
0.192202
-0.263318
-0.630225
-0.822329
-0.864439
-0.865823
1
1
1
1
1
1
0.999985
0.999899
0.99987
1.00029
1.00312
1.01078
1.01027
0.992288
0.910438
0.691044
0.32163
-0.140564
-0.518332
-0.743117
-0.86641
-0.902566
-0.888491
1
1
1
1
1
1
0.999986
0.9999
0.999877
1.00042
1.00392
1.0119
1.00985
0.980827
0.858241
0.543717
0.0420201
-0.435688
-0.721629
-0.863728
-0.917457
-0.930343
-0.90697
-1
-1
-1
-1
-1
-1
-1
-1
-1
-1
-1
-1
-1
-1
-1
-1
-1
-1
-1
-1
-1
-1
-1
-1
-1
-1
-1
-1
-1
-1
-1
-1
-1
-1
-1
-1
-1
-1
-1
-1
-1
-1
-1
-1
-1
-1
-1
-1
-1
-1
-1
-1
-1
-1
-1
-1
-1
-1
-1
-1
-1
-1
-1
-1
-1
-1
-1
-1
-1
-1
-1
-1
-1
-1
-1
-1
-1
-1
-1
-1
-1
-1
-1
-1
-1
-1
-1
-1
-1
-1
-1
-1
-1
-1
-1
-1
-1
-1
-1
-1
-1
-1
-1
-1
-1
-1
-1
-1
-1
-1
-1
-1
-1
-1
-1
-1
-1
-1
-1
-1
-1
-1
-1
-1
-1
-1
-1
-1
-1
-1
-1
-1
-1
-0.999999
-1
-1
-1
-1
-1
-1
-1
-1
-1
-1
-1
-1
-1
-1
-1
-1
-1
-1
1
1
1
1
1
1
0.999987
0.999887
0.999887
1.00069
1.00562
1.01341
1.00867
0.958231
0.761199
0.292805
-0.321415
-0.67934
-0.847304
-0.92917
-0.962971
-0.965631
-0.943292
1
1
1
1
1
1
0.99998
0.999856
0.999902
1.00125
1.00911
1.01463
1.00579
0.915442
0.586782
-0.0673386
-0.649296
-0.873855
-0.957869
-0.980525
-0.98891
-0.990843
-0.965186
1
1
1
1
1
1
0.999972
0.999833
0.999949
1.002
1.013
1.01535
0.994208
0.815926
0.244918
-0.459413
-0.806666
-0.929711
-0.973535
-0.989721
-0.996039
-0.997543
-0.973097
1
1
1
1
1
0.999999
0.999961
0.999816
1.00005
1.00309
1.01722
1.01464
0.970763
0.669983
-0.0984034
-0.702516
-0.917926
-0.980756
-0.995601
-0.998254
-0.999389
-0.999143
-0.981139
1
1
1
1
1
0.999997
0.999947
0.999792
1.00024
1.00456
1.02072
1.01005
0.925534
0.430566
-0.450001
-0.865327
-0.970884
-0.995773
-0.999603
-0.999902
-1
-0.999461
-0.988434
1
1
1
1
1
0.999996
0.99993
0.999777
1.00056
1.0066
1.02217
0.998712
0.8415
0.0965627
-0.709438
-0.951431
-0.993326
-0.999636
-1.0001
-1.00001
-1.00002
-0.99982
-0.995966
1
1
1
1
1
0.999995
0.999913
0.999773
1.00103
1.00941
1.02413
0.971329
0.688705
-0.282822
-0.873831
-0.992895
-1.00163
-1.00036
-1.00001
-0.999982
-1.00001
-0.999966
-0.998676
1.00001
1.00001
1
1.00001
1.00001
0.999992
0.999887
0.999764
1.00159
1.01267
1.0248
0.923911
0.4273
-0.606129
-0.967269
-1.00526
-1.00201
-1.00009
-0.999934
-0.999981
-1
-0.99995
-0.999301
0.999989
0.999986
0.999979
0.999971
0.999956
0.999913
0.999744
0.999616
1.00199
1.01569
1.02264
0.861975
0.0924625
-0.810317
-1.00734
-1.00879
-1.00113
-0.999862
-0.999928
-0.999989
-1
-0.999982
-0.99968
0.999689
0.999664
0.999611
0.999536
0.999406
0.999199
0.998753
0.998586
1.00201
1.01805
1.01876
0.794658
-0.217434
-0.909947
-1.0202
-1.0076
-1.00061
-0.999782
-0.999927
-0.999993
-1
-0.999997
-0.999929
0.997461
0.997319
0.997031
0.996629
0.995936
0.99498
0.993444
0.993007
1
1.01941
1.01633
0.740259
-0.395633
-0.946221
-1.02334
-1.00874
-1.00077
-0.999762
-0.999927
-0.999995
-1
-1
-0.999992
0.986041
0.98545
0.984309
0.982704
0.980046
0.976509
0.971912
0.970895
0.993701
1.02141
1.02324
0.719902
-0.291549
-0.91938
-1.01081
-1.01062
-1.00176
-0.999788
-0.999917
-0.999997
-1
-1
-1
0.94105
0.93913
0.935541
0.930467
0.922418
0.912277
0.901187
0.898125
0.961052
1.00235
0.983469
0.542364
-0.477271
-0.92335
-0.979775
-1.00844
-1.00338
-1.00008
-0.999903
-0.999993
-1
-1
-1
0.796973
0.791857
0.782362
0.768974
0.748633
0.725885
0.704119
0.696742
0.839986
0.915317
0.922953
0.446644
-0.478959
-0.820363
-0.950378
-1.00093
-1.00335
-1.0005
-0.999943
-0.999991
-1
-1
-1
0.406094
0.394728
0.373531
0.344358
0.302993
0.265472
0.236184
0.230581
0.442461
0.620215
0.7582
0.653282
-0.175548
-0.761181
-0.952417
-1.00028
-1.00313
-1.00041
-0.999943
-0.99999
-1
-1
-1
-0.322328
-0.333967
-0.355784
-0.383837
-0.419316
-0.444422
-0.460828
-0.455427
-0.290539
-0.128787
0.114589
-0.0115962
-0.439853
-0.89758
-0.988901
-1.00383
-1.00198
-1.00018
-0.999948
-0.999993
-1
-1
-1
-0.818432
-0.822374
-0.83029
-0.839872
-0.850799
-0.857384
-0.860313
-0.855165
-0.802207
-0.742514
-0.651848
-0.685777
-0.841282
-0.976318
-1.00093
-1.00369
-1.00103
-1.00003
-0.999956
-0.999996
-1
-1
-1
-0.976342
-0.977127
-0.978747
-0.980595
-0.982741
-0.983828
-0.984001
-0.982629
-0.971673
-0.95697
-0.937682
-0.947038
-0.981801
-1.00186
-1.00373
-1.00253
-1.00046
-0.999983
-0.999964
-0.999997
-1
-1
-1
-1.00691
-1.00692
-1.00702
-1.00714
-1.00736
-1.00746
-1.00751
-1.00749
-1.00626
-1.00359
-0.998791
-0.999768
-1.00409
-1.00511
-1.00362
-1.00179
-1.0003
-0.999984
-0.999977
-0.999998
-1
-1
-1
-1.00936
-1.00919
-1.00898
-1.00885
-1.00873
-1.00875
-1.00891
-1.00918
-1.00947
-1.00844
-1.00641
-1.00537
-1.00459
-1.00281
-1.00204
-1.00094
-1.00014
-0.999979
-0.999987
-0.999999
-1
-1
-1
-1.00259
-1.00249
-1.00238
-1.00226
-1.0022
-1.00219
-1.00231
-1.00263
-1.0033
-1.00387
-1.00354
-1.00239
-1.00136
-1.0008
-1.00054
-1.00025
-1.00002
-0.999979
-0.999994
-1
-1
-1
-1
-1.00021
-1.00019
-1.00018
-1.00016
-1.00015
-1.00015
-1.00018
-1.00025
-1.0004
-1.00052
-1.00052
-1.00029
-1.00017
-1.00014
-1.00008
-1.00002
-0.999991
-0.999987
-0.999998
-1
-1
-1
-1
-0.999893
-0.999892
-0.999892
-0.999891
-0.99989
-0.999888
-0.999888
-0.999893
-0.99991
-0.99993
-0.999951
-0.999935
-0.999966
-0.999988
-0.999992
-0.999993
-0.999993
-0.999997
-1
-1
-1
-1
-1
-0.999952
-0.999954
-0.999954
-0.999953
-0.999951
-0.999946
-0.999938
-0.999923
-0.999912
-0.999913
-0.999945
-0.999967
-0.999986
-0.999994
-0.999997
-0.999998
-0.999998
-1
-1
-1
-1
-1
-1
-0.999996
-0.999996
-0.999996
-0.999995
-0.999995
-0.999994
-0.999993
-0.999989
-0.999984
-0.999983
-0.999991
-0.999997
-1
-1
-1
-1
-1
-1
-1
-1
-1
-1
-1
-1
-1
-1
-1
-1
-1
-1
-1
-1
-1
-1
-1
-1
-1
-1
-1
-1
-1
-1
-1
-1
-1
-1
-1
-1
-1
-1
-1
-1
-1
-1
-1
-1
-1
-1
-1
-1
-1
-1
-1
-1
-1
-1
-1
-1
-1
-1
-1
-1
-1
-1
-1
-1
-1
-1
-1
-1
-1
-1
-1
-1
-1
-1
-1
-1
-1
-1
-1
-1
-1
-1
-1
-1
-1
-1
-1
-1
-1
-1
-1
-1
-1
-1
-1
-1
-1
-1
-1
-1
-1
-1
-1
-1
-1
-1
-1
-1
-1
-1
-1
-1
-1
-1
-1
-1
-1
-1
-1
-1
-1
-1
-1
-1
-1
-1
-1
-1
-1
-1
-1
-1
-1
-1
-1
-1
-1
-1
-1
-1
-1
-1
-1
-1
-1
-1
-1
-1
-1
-1
-1
-1
-1
-1
-1
-1
-1
-1
-1
-1
-1
-1
-1
-1
-1
-1
-1
-1
-1
-1
-1
-1
-1
-1
-1
-1
-1
-1
-1
-1
-1
-1
-1
-1
-1
-1
-1
-1
-1
-1
-1
-1
-1
-1
-1
-1
-1
-1
-1
-1
-1
-1
-1
-1
-1
-1
-1
-1
-1
-1
-1
-1
-1
-1
-1
-1
-1
-1
-1
-1
-1
-1
-1
-1
-1
-1
-1
-1
-1
-1
-1
-1
-1
-1
-1
-1
-1
-1
-1
-1
-1
-1
-1
-1
-1
-1
-1
-1
-1
-1
-1
-1
-1
-1
-1
-1
-1
-1
-1
-1
-1
-1
-1
-1
-1
-1
-1
-1
-1
-1
-1
-1
-1
-1
-1
-1
-1
-1
-1
-1
-1
-1
-1
-1
-1
-1
-1
-1
-1
-1
-1
-1
-1
-1
-1
-1
-1
-1
-1
-1
-1
-1
-1
-1
-1
-1
-1
-1
-1
-1
-1
-1
-1
-1
-1
-1
-1
-1
-1
-1
-1
-1
-1
-1
-1
-1
-1
-1
-1
-1
-1
-1
-1
-1
-1
-1
-1
-1
-1
-1
-1
-1
-1
-1
-1
-1
-1
-1
-1
-1
-1
-1
-1
-1
-1
-1
-1
-1
-1
-1
-1
-1
-1
-1
-1
-1
-1
-1
-1
-1
-1
-1
-1
-1
-1
-1
-1
-1
-1
-1
-1
-1
-1
-1
-1
-1
-1
-1
-1
-1
-1
-1
-1
-1
-1
-1
-1
-1
-1
-1
-1
-1
-0.995228
-1.00117
-1.00055
-1.00007
-0.987391
-0.998976
-1.00045
-1.00009
-0.985326
-0.995472
-0.999389
-0.99972
-0.985161
-0.989253
-0.993813
-0.996123
-0.987285
-0.988572
-0.990495
-0.992336
-0.99167
-0.990302
-0.990981
-0.992021
-0.995217
-0.992854
-0.99235
-0.99275
-0.996639
-0.995158
-0.994587
-0.994848
-0.998436
-0.997909
-0.997697
-0.997955
-0.999627
-0.999509
-0.999465
-0.999568
-0.999949
-0.999932
-0.999927
-0.999947
-0.999996
-0.999994
-0.999994
-0.999996
-1
-1
-1
-1
-1
-1
-1
-1
-1
-1
-1
-1
-1
-1
-1
-1
-1
-1
-1
-1
-1
-1
-1
-1
-1
-1
-1
-1
-1
-1
-1
-1
-1
-1
-1
-1
-1
-1
-1
-1
-1
-1
-1
-1
-1
-1
-1
-1
-1
-1
-1
-1
-1
-1
-1
-1
-1
-1
-1
-1
-1
-1
-1
-1
-1
-1
-1
-1
-1
-1
-1
-1
-1
-1
-1
-1
-1
-1
-1
-1
-1
-1
-1
-1
-1
-1
-1
-1
-1
-1
-1
-1
-1
-1
-1
-1
-1
-1
-1
-1
-1
-1
-1
-1
-1
-1
-1
-1
-1
-1
-1
-1
-1
-1
-1
-1
-1
-1
-1
-1
-0.999995
-0.999996
-1
-1
-1
-1
-1
-1
-1
-1
-1
-1
-1
-1
-1
-1
-1
-1
-1
-0.999959
-0.999946
-0.999997
-1
-1
-1
-1
-1
-1
-1
-1
-1
-1
-1
-1
-1
-1
-1
-1
-0.99961
-0.999727
-0.999973
-1
-1
-1
-1
-1
-1
-1
-1
-1
-1
-1
-1
-1
-1
-1
-1
-0.997477
-0.999001
-0.999888
-0.999997
-1
-1
-1
-1
-1
-1
-1
-1
-1
-1
-1
-1
-1
-1
-1
-0.994752
-0.998179
-0.999738
-0.999985
-1
-1
-1
-1
-1
-1
-1
-1
-1
-1
-1
-1
-1
-1
-1
-0.994352
-0.997952
-0.999586
-0.999968
-0.999999
-1
-1
-1
-1
-1
-1
-1
-1
-1
-1
-1
-1
-1
-1
-0.994969
-0.998556
-0.999786
-0.999988
-1
-1
-1
-1
-1
-1
-1
-1
-1
-1
-1
-1
-1
-1
-1
-0.997112
-0.999463
-0.999943
-0.999997
-1
-1
-1
-1
-1
-1
-1
-1
-1
-1
-1
-1
-1
-1
-1
-0.999239
-0.999904
-0.999994
-1
-1
-1
-1
-1
-1
-1
-1
-1
-1
-1
-1
-1
-1
-1
-1
-0.999888
-0.999991
-1
-1
-1
-1
-1
-1
-1
-1
-1
-1
-1
-1
-1
-1
-1
-1
-1
-0.999991
-1
-1
-1
-1
-1
-1
-1
-1
-1
-1
-1
-1
-1
-1
-1
-1
-1
-1
-1
-1
-1
-1
-1
-1
-1
-1
-1
-1
-1
-1
-1
-1
-1
-1
-1
-1
-1
-1
-1
-1
-1
-1
-1
-1
-1
-1
-1
-1
-1
-1
-1
-1
-1
-1
-1
-1
-1
-1
-1
-1
-1
-1
-1
-1
-1
-1
-1
-1
-1
-1
-1
-1
-1
-1
-1
-1
-1
-1
-1
-1
-1
-1
-1
-1
-1
-1
-1
-1
-1
-1
-1
-1
-1
-1
-1
-1
-1
-1
-1
-1
-1
-1
-1
-1
-1
-1
-1
-1
-1
-1
-1
-1
-1
-1
-1
-1
-1
-1
-1
-1
-1
-1
-1
-1
-1
-1
-1
-1
-1
-1
-1
-1
-1
-1
-1
-1
-1
-1
-1
-1
-1
-1
-1
-1
-1
-1
-1
-1
-1
-1
-1
-1
-1
-1
-1
-1
-1
-1
-1
-1
-1
-1
-1
-1
-1
-1
-1
-1
-1
-1
-1
-1
-1
-1
-1
-1
-1
-1
-1
-1
-1
-1
-1
-1
-1
-1
-1
-1
-1
-1
-1
-1
-1
-1
-1
-1
-1
-1
-1
-1
-1
-1
-1
-1
-1
-1
-1
-1
-1
-1
-1
-1
-1
-1
-1
-1
-1
-1
-1
-1
-1
-1
-1
-1
-1
-1
-1
-1
-1
-1
-1
-1
-1
-1
-1
-1
-1
-1
-1
-1
-1
-1
-1
-1
-1
-1
-1
-1
-1
-1
-1
-1
-1
-1
-1
-1
-1
-1
-1
-1
-1
-1
-1
-1
-1
-1
-1
-1
-1
-1
-1
-1
-1
-1
-1
-1
-1
-1
-1
-1
-1
-1
-1
-1
-1
-1
-1
-1
-1
-1
-1
-1
-1
-1
-1
-1
-1
-1
-1
-1
-1
-1
-1
-1
-1
-1
-1
-1
-1
-1
-1
-1
-1
-1
-1
-1
-1
-1
-1
-1
-1
-1
-1
-1
-1
-1
-1
-1
-1
-1
-1
-1
-1
-1
-1
-1
-1
-1
-1
-1
-1
-1
-1
-1
-1
-1
-1
-1
-1
-1
-1
-1
-1
-1
-1
-1
-1
-1
-1
-1
-1
-1
-1
-1
-1
-1
-1
-1
-1
-1
-1
-1
-1
-1
-1
-1
-1
-1
-1
-1
-1
-1
-1
-1
-1
-1
-1
-1
-1
-1
-1
-1
-1
-1
-1
-1
-1
-1
-1
-1
-1
-1
-1
-1
-1
-1
-1
-1
-1
-1
-1
-1
-1
-1
-1
-1
-1
-1
-1
-1
-1
-1
-1
-1
-1
-1
-1
-1
-1
-1
-1
-1
-1
-1
-1
-1
-1
-1
-1
-1
-1
-1
-1
-1
-1
-1
-1
-1
-1
-1
-1
-1
-1
-1
-1
-1
-1
-1
-1
-1
-1
-1
-1
-1
-1
-1
-1
-1
-1
-1
-1
-1
-1
-1
-1
-1
-1
-1
-1
-1
-1
-1
-1
-1
-1
-1
-1
-1
-1
-1
-1
-1
-1
-1
-1
-1
-1
-1
-1
-1
-1
-1
-1
-1
-1
-1
-1
-1
-1
-1
-1
-1
-1
-1
-1
-1
-1
-1
-1
-1
-1
-1
-1
-1
-1
-1
-1
-1
-1
-1
-1
-1
-1
-1
-1
-1
-1
-1
-1
-1
-1
-1
-1
-1
-1
-1
-1
-1
-1
-1
-1
-1
-1
-1
-1
-1
-1
-1
-1
-1
-1
-1
-1
-1
-1
-1
-1
-1
-1
-1
-1
-1
-1
-1
-1
-1
-1
-1
-1
-1
-1
-1
-1
-1
-1
-1
-1
-1
-1
-1
-1
-1
-1
-1
-1
-1
-1
-1
-1
-1
-1
-1
-1
-1
-1
-1
-1
)
;

boundaryField
{
    leftWall
    {
        type            zeroGradient;
    }
    rightWall
    {
        type            zeroGradient;
    }
    lowerWall
    {
        type            zeroGradient;
    }
    atmosphere
    {
        type            zeroGradient;
    }
    defaultFaces
    {
        type            empty;
    }
}


// ************************************************************************* //
