/*--------------------------------*- C++ -*----------------------------------*\
| =========                 |                                                 |
| \\      /  F ield         | foam-extend: Open Source CFD                    |
|  \\    /   O peration     | Version:     4.1                                |
|   \\  /    A nd           | Web:         http://www.foam-extend.org         |
|    \\/     M anipulation  |                                                 |
\*---------------------------------------------------------------------------*/
FoamFile
{
    version     2.0;
    format      ascii;
    class       volScalarField;
    location    "0.1";
    object      p;
}
// * * * * * * * * * * * * * * * * * * * * * * * * * * * * * * * * * * * * * //

dimensions      [1 -1 -2 0 0 0 0];

internalField   nonuniform List<scalar> 
2268
(
2200.97
2183.98
2172.22
2121.95
2096.3
2013.93
1968.37
1872.14
1806.13
1724.88
1722.13
1752.44
1553.23
1478.64
1330.26
1147.04
1012.01
538.823
511.496
444.522
515.176
894.502
974.201
2142.15
2125.2
2113.27
2063.2
2037.19
1954.79
1908.9
1814.09
1738.65
1643.38
1743.49
1650.7
1481.48
1406.76
1253.76
1073.87
1168.05
490.501
458.498
419.84
406.348
639.771
896.258
2083.28
2066.48
2054.23
2004.62
1978.29
1895.37
1849.93
1750.52
1681.64
1585.08
1669.99
1556.13
1420.33
1344.46
1192.09
1037.44
740.344
383.833
342.794
346.355
415.611
634.238
797.152
2024.59
2007.89
1995.1
1946.22
1918.37
1835.75
1791.08
1685.46
1613.91
1615.2
1560.04
1472.34
1348.4
1248.98
1094.93
877.284
669.808
513.988
421.125
375.592
331.541
460.611
672.094
1965.66
1949.33
1935.89
1887.9
1859.64
1776.14
1729.99
1648.09
1527.34
1574.55
1471.21
1391.54
1274.82
1173.5
988.541
757.155
531.745
331.059
268.976
226.535
246.085
299.605
586.185
1907.24
1890.89
1876.55
1830.22
1798.67
1718.08
1658.11
1551.74
1546.17
1487.26
1390.09
1307.89
1182.77
1082.97
877.777
631.147
404.825
344.702
277.229
256.97
196.605
218.462
454.296
1848.07
1832.58
1817.32
1771.77
1740.06
1648.98
1627.37
1471.52
1500.51
1414.58
1310.85
1231.1
1093.77
979.307
766.041
518.039
322.436
215.05
142.454
149.02
153.393
149.987
216.408
1790.53
1774.36
1757.64
1707.32
1671.55
1611.27
1522.4
1454.97
1424.8
1337.31
1235.34
1126.87
1033.89
925.616
657.265
414.545
240.695
154.527
153.392
115.514
100.616
98.7033
100.503
-5.69801
-5.69315
-5.50436
-5.19088
-4.81989
-4.48877
-4.18269
-3.89344
-3.61232
-3.32407
-3.05523
-2.74789
-2.52675
-2.34567
-2.19376
-2.08651
-2.01008
-1.96211
-1.93748
-5.78602
-5.80699
-5.58289
-5.26278
-4.8833
-4.54678
-4.23642
-3.94232
-3.65879
-3.37019
-3.1034
-2.80835
-2.57869
-2.39394
-2.24735
-2.14172
-2.06531
-2.01736
-1.99297
-5.91023
-5.9215
-5.6814
-5.348
-4.9482
-4.60687
-4.29028
-3.98247
-3.68981
-3.39533
-3.14126
-2.84287
-2.61857
-2.43899
-2.29662
-2.19283
-2.11704
-2.06891
-2.04459
-6.07211
-6.06084
-5.80762
-5.44827
-5.01411
-4.66586
-4.33302
-4.0165
-3.71042
-3.40991
-3.1493
-2.86692
-2.65382
-2.47944
-2.34155
-2.24009
-2.16548
-2.11678
-2.09217
-6.28737
-6.23125
-5.97847
-5.57207
-5.09226
-4.72027
-4.3653
-4.02959
-3.70588
-3.41606
-3.13636
-2.8948
-2.68484
-2.51564
-2.38255
-2.28355
-2.2101
-2.16103
-2.13583
-6.69467
-6.49165
-6.2154
-5.69856
-5.14535
-4.76362
-4.38599
-4.02943
-3.69587
-3.40303
-3.13947
-2.9041
-2.70652
-2.54818
-2.41955
-2.32299
-2.25017
-2.20157
-2.17609
-7.20558
-6.81015
-6.52918
-5.91515
-5.24789
-4.8128
-4.3952
-4.01244
-3.65793
-3.4102
-3.14309
-2.90773
-2.72394
-2.57574
-2.45296
-2.35762
-2.28615
-2.23828
-2.2131
-8.07759
-7.20093
-6.88518
-6.00962
-5.35673
-4.81521
-4.3578
-3.98108
-3.65015
-3.37959
-3.11479
-2.90461
-2.73881
-2.60019
-2.48302
-2.38874
-2.31941
-2.27092
-2.24736
1696.6
1683.67
1658.77
1645.81
1589.41
1444.06
1488.35
1357.15
1321.05
1226.96
1105.01
959.738
711.6
828.216
511.552
304.809
177.893
74.6405
51.1085
63.1196
34.9711
38.9627
-23.837
1578
1560.05
1535.49
1454.7
1475.24
1372.02
1334.29
1256.59
1186.99
1093.1
972.606
835.09
587.595
539.506
277.721
76.2234
73.6995
34.3143
29.057
24.997
11.2085
9.84219
-5.16212
1448.59
1432.01
1411.95
1358.76
1334.69
1265.67
1219.49
1132.82
1063.24
953.389
847.81
705.314
507.457
432.381
191.495
81.4488
10.1823
11.2674
6.09839
5.47743
3.16247
5.41085
-6.77258
1316.29
1300.76
1286.38
1241.19
1214.22
1148.88
1096.79
1019.32
943.604
834.485
726.644
571.984
370.964
271.023
89.767
27.6569
9.53509
1.85733
-0.460833
-0.0187083
2.43554
0.355925
-13.0748
1186.92
1174.39
1157.96
1120.9
1088.27
1032.45
979.88
903.456
829.368
721.327
617.484
457.759
279.491
144.102
50.9278
9.62291
-0.924846
-0.76191
-1.14758
-1.06033
-0.147147
-1.41091
0.925407
1060.3
1049.13
1033.98
1001.63
969.616
918.536
865.847
795.64
724.57
622.84
519.315
351.773
196.497
60.1173
10.5314
0.0145352
-0.971976
-1.48263
-1.55988
-1.66854
-1.6782
-2.68388
-4.0949
936.384
927.435
911.841
884.597
852.133
806.368
755.644
691.596
628.006
537.803
442.44
280.751
120.198
26.7123
0.982249
-0.305549
-1.62052
-1.80498
-1.70839
-2.01082
-2.47133
-3.84838
-5.77352
817.039
809.43
795.509
772.081
742.36
699.639
652.174
586.216
521.011
427.869
343.657
217.336
59.4258
8.21819
-1.23387
-1.64677
-1.46295
-1.847
-1.98022
-2.29186
-2.64883
-3.69805
-7.31929
699.753
693.695
680.787
661.053
632.833
590.66
550.151
472.166
425.815
351.1
288.116
145.181
23.392
-1.70232
-1.52734
-2.64679
-1.97165
-1.93793
-2.02494
-2.35681
-2.50728
-3.46677
-6.23393
585.885
581.57
571.989
558.469
534.257
503.237
457.773
424.622
489.67
512.803
433.259
121.987
7.1051
-1.25304
-0.452282
-1.5968
-1.83287
-2.01212
-2.06946
-2.09527
-2.15059
-2.48381
-3.19531
475.941
472.752
466.161
456.291
435.614
404.851
329.289
243.083
-90.0491
-61.7788
-170.874
6.1497
-0.979851
-1.49704
-0.610363
-1.51613
-1.80403
-1.98334
-2.0162
-2.09766
-1.99828
-2.02291
-1.74911
375.134
373.653
372.16
370.992
372.144
350.49
298.91
227.334
101.406
66.5803
37.3315
26.2969
-4.24428
-3.92536
-2.99194
-2.09326
-2.25706
-2.26731
-2.21528
-2.11769
-1.99009
-1.8473
-1.43488
235.684
235.796
236.522
239.817
256.588
225.872
195.521
121.156
30.4727
34.739
56.6692
76.5163
-7.14822
-0.351698
-7.53243
-2.8738
-2.9798
-2.70328
-2.51147
-2.37849
-2.24002
-2.0258
-1.38604
123.945
124.587
126.952
127.549
134.804
93.9729
74.1991
3.58866
-132.693
-51.2237
-62.4895
-232.829
-32.2755
-6.10656
-5.36245
-4.6557
-4.00794
-3.30619
-2.77652
-2.48643
-2.12258
-1.93101
-1.62083
55.3249
53.3805
52.4547
44.2235
25.0357
23.164
27.7346
5.21286
92.6307
-116.607
-31.285
-22.638
1.44013
-13.2558
-8.41286
-6.72179
-4.84192
-3.85743
-3.39315
-2.914
-2.63685
-2.19422
-1.84522
-22.8092
-23.5823
-28.3424
-29.6605
-37.9472
-36.5668
-35.5245
-29.5809
-15.1274
-5.98904
-101.553
-33.6146
-21.907
-11.5883
-6.63143
-4.50149
-3.96844
-3.79369
-3.13567
-2.72088
-2.51483
-2.29832
-2.07209
-18.2882
-18.7447
-22.5358
-18.4165
-18.7066
-21.8374
-18.2334
-20.0649
-21.9637
-18.5511
-16.3762
-29.7394
-8.79912
-6.45049
-4.28498
-3.79828
-3.47598
-3.43922
-3.03824
-2.86285
-2.63736
-2.41199
-2.2564
-7.60732
-7.57226
-7.44783
-7.13518
-7.0887
-7.17027
-7.17471
-7.43036
-8.50677
-8.80605
-6.84989
-7.28426
-4.88762
-4.38717
-3.22345
-3.56127
-3.41121
-3.21158
-3.07684
-2.90455
-2.75633
-2.51739
-2.47659
-4.76645
-4.74064
-4.66663
-4.71767
-4.76371
-4.76477
-4.92401
-5.00637
-5.13758
-5.10181
-4.35372
-4.52809
-3.76224
-3.32505
-3.65577
-3.64581
-3.57649
-3.14336
-3.12072
-2.92814
-2.97109
-2.66888
-2.50706
-3.50113
-3.53959
-3.57333
-3.7172
-3.74553
-3.7883
-3.72911
-3.73368
-3.70705
-3.58949
-3.57542
-3.72527
-3.72277
-3.89481
-3.49727
-3.61008
-3.52241
-3.44436
-3.20755
-3.04079
-2.88855
-2.81268
-2.70676
-3.53446
-3.53341
-3.53106
-3.54873
-3.55832
-3.59736
-3.6403
-3.69479
-3.74166
-4.18046
-3.99781
-3.91694
-3.85965
-3.23376
-3.40138
-3.75377
-3.54817
-3.4091
-3.30057
-3.16244
-3.07569
-2.93767
-2.83898
-3.23312
-3.23555
-3.24471
-3.26872
-3.28671
-3.31864
-3.35388
-3.39126
-3.64657
-3.93457
-3.53287
-3.63897
-3.65948
-3.46423
-3.64117
-3.63134
-3.61669
-3.49559
-3.40456
-3.24866
-3.1809
-3.06754
-2.98905
-3.98146
-3.99138
-3.99933
-4.02203
-4.03407
-4.05141
-4.05567
-4.03505
-4.16529
-4.0841
-3.60286
-3.76833
-3.67264
-3.57587
-3.41723
-3.7983
-3.73473
-3.55157
-3.49587
-3.3829
-3.30126
-3.19709
-3.12718
-3.87519
-3.88207
-3.8855
-3.90765
-3.91251
-3.94171
-3.93039
-3.96236
-4.09965
-3.81844
-3.73895
-3.70663
-3.74568
-3.68058
-3.64978
-3.47184
-3.8054
-3.74511
-3.59475
-3.44196
-3.42687
-3.35243
-3.29492
-4.01452
-4.02048
-4.0216
-4.04375
-4.04299
-4.05073
-4.02848
-4.21118
-3.83381
-3.88486
-3.81133
-3.80387
-3.77476
-3.74064
-3.70407
-3.65856
-3.74828
-3.76066
-3.73608
-3.68208
-3.53162
-3.43807
-3.36974
-4.05066
-4.05117
-4.0593
-4.05827
-4.05703
-4.04226
-4.18026
-3.89044
-3.90311
-3.89479
-3.88506
-3.86513
-3.85928
-3.82938
-3.79887
-3.77842
-3.73101
-3.863
-3.80446
-3.75832
-3.74554
-3.68846
-3.63806
-4.14415
-4.14507
-4.15183
-4.14963
-4.1792
-4.17826
-3.99222
-4.02329
-3.99809
-3.98778
-3.96526
-3.95338
-3.93698
-3.92052
-3.89334
-3.87752
-3.87649
-3.75635
-3.95141
-3.84438
-3.81352
-3.75925
-3.7317
-4.19408
-4.20072
-4.17773
-4.25514
-4.10545
-4.17004
-4.11305
-4.10907
-4.08725
-4.07679
-4.06331
-4.0469
-4.04019
-4.01624
-4.01027
-3.96089
-3.97837
-3.92906
-3.98297
-3.97731
-3.95103
-3.90265
-3.87627
-4.2978
-4.28944
-4.29997
-4.23295
-4.23062
-4.23589
-4.20752
-4.20074
-4.18353
-4.17337
-4.15754
-4.14739
-4.13487
-4.12157
-4.10591
-4.08901
-4.08034
-4.05705
-4.03426
-4.08231
-4.06376
-4.02646
-4.00715
-4.35955
-4.35472
-4.3519
-4.32955
-4.32614
-4.31751
-4.30372
-4.29664
-4.28378
-4.27443
-4.26408
-4.25229
-4.24379
-4.23099
-4.2137
-4.20833
-4.18422
-4.17701
-4.18463
-4.11044
-4.21503
-4.14651
-4.13821
-4.44972
-4.44594
-4.44412
-4.43345
-4.42665
-4.41731
-4.40743
-4.39866
-4.38824
-4.37977
-4.36935
-4.36078
-4.35202
-4.34194
-4.32905
-4.31742
-4.30619
-4.28614
-4.29206
-4.25695
-4.29378
-4.28608
-4.2736
-4.5406
-4.53858
-4.53539
-4.53001
-4.52461
-4.51903
-4.51124
-4.5049
-4.49671
-4.48923
-4.48122
-4.473
-4.46532
-4.45685
-4.44416
-4.43685
-4.4242
-4.417
-4.40947
-4.39607
-4.38563
-4.39789
-4.39626
-4.64649
-4.64463
-4.64277
-4.63778
-4.63377
-4.62745
-4.62156
-4.61491
-4.60774
-4.60115
-4.59348
-4.58676
-4.57985
-4.57223
-4.56303
-4.55371
-4.55113
-4.53084
-4.53173
-4.51402
-4.52927
-4.48779
-4.55159
-4.7515
-4.75055
-4.74844
-4.74566
-4.74186
-4.73788
-4.73273
-4.72788
-4.72185
-4.71662
-4.70992
-4.70482
-4.69775
-4.69268
-4.6823
-4.67576
-4.66866
-4.65998
-4.65692
-4.64205
-4.65039
-4.61311
-4.65193
-4.86531
-4.86431
-4.8627
-4.85985
-4.85667
-4.85258
-4.84794
-4.84326
-4.83734
-4.83255
-4.82581
-4.82097
-4.81465
-4.80925
-4.80152
-4.79585
-4.78834
-4.78495
-4.77748
-4.77009
-4.7746
-4.75567
-4.78137
-4.97714
-4.97648
-4.97501
-4.97303
-4.97028
-4.96733
-4.9634
-4.96004
-4.95502
-4.95212
-4.9459
-4.94435
-4.93686
-4.93613
-4.9255
-4.92275
-4.91494
-4.91165
-4.90403
-4.9039
-4.89423
-4.90489
-4.87151
-5.09662
-5.09595
-5.09462
-5.09266
-5.09003
-5.08711
-5.08311
-5.07977
-5.07431
-5.07103
-5.06419
-5.06002
-5.05415
-5.04442
-5.04578
-5.04033
-5.03517
-5.03256
-5.02659
-5.02643
-5.01992
-5.02718
-5.00703
-5.20534
-5.2049
-5.20397
-5.20272
-5.20093
-5.19919
-5.19654
-5.19488
-5.19095
-5.19055
-5.18418
-5.18893
-5.17278
-5.19311
-5.17328
-5.17365
-5.16591
-5.1643
-5.15873
-5.15693
-5.1531
-5.15183
-5.14896
-5.33998
-5.33947
-5.3384
-5.33688
-5.33476
-5.33239
-5.3292
-5.32626
-5.32188
-5.3188
-5.31314
-5.31046
-5.30396
-5.30217
-5.29408
-5.28927
-5.28441
-5.28209
-5.27914
-5.2772
-5.27834
-5.27292
-5.28069
-5.43462
-5.43436
-5.43376
-5.43298
-5.43188
-5.43082
-5.42933
-5.4285
-5.42658
-5.42686
-5.42425
-5.42681
-5.42298
-5.42836
-5.42311
-5.42482
-5.42024
-5.41925
-5.41579
-5.41329
-5.41351
-5.40916
-5.4148
-5.59966
-5.59924
-5.59813
-5.59653
-5.59432
-5.59171
-5.58845
-5.58503
-5.58063
-5.57656
-5.57075
-5.56607
-5.55835
-5.55254
-5.5413
-5.53328
-5.53142
-5.53068
-5.53121
-5.53103
-5.53341
-5.53129
-5.53507
-5.64723
-5.64729
-5.6474
-5.64771
-5.64809
-5.64865
-5.64937
-5.65047
-5.65173
-5.65391
-5.65593
-5.66051
-5.66335
-5.67442
-5.6776
-5.68459
-5.67951
-5.67941
-5.67457
-5.67419
-5.67011
-5.66584
-5.66873
-8.8532
-7.56621
-8.52787
-8.537
-12.4604
-8.79285
-8.25163
-9.08506
-16.4787
-16.8935
-15.1285
-13.7684
-15.7011
-20.062
-23.7218
-23.9175
-7.87476
-17.0862
-20.5801
-21.7778
-6.88864
-9.71932
-10.6909
-12.4515
-8.30582
-10.3383
-9.05438
-7.49215
-9.72526
-9.55341
-5.34802
-1.23929
-6.00797
-2.99805
-1.26453
0.804779
-2.18436
-1.11042
0.0742981
1.22866
-0.88254
-0.290779
0.35509
0.915391
-0.838422
-0.462377
-0.0949142
0.20801
-1.0442
-0.806863
-0.595388
-0.423989
-1.33919
-1.16718
-1.01608
-0.884506
-1.59738
-1.45925
-1.35207
-1.23003
-1.89184
-1.78959
-1.74979
-1.61037
-2.08557
-2.06832
-1.91943
-1.87175
-2.27014
-2.18715
-2.13257
-2.07392
-2.44218
-2.38716
-2.33063
-2.29185
-2.61558
-2.56688
-2.52202
-2.48891
-2.76833
-2.73279
-2.69744
-2.67091
-2.93047
-2.89926
-2.86729
-2.84544
-3.07575
-3.04887
-3.02606
-3.0074
-3.24655
-3.21933
-3.19032
-3.16835
-3.33387
-3.30716
-3.32486
-3.31997
-3.58796
-3.5753
-3.5005
-3.46123
-3.71005
-3.70525
-3.70817
-3.70049
-3.85015
-3.83853
-3.82176
-3.80987
-3.98847
-3.98032
-3.9703
-3.963
-4.12026
-4.11341
-4.10406
-4.09861
-4.2561
-4.25141
-4.24249
-4.23859
-4.38288
-4.3797
-4.37338
-4.37031
-4.51242
-4.51508
-4.50623
-4.50498
-4.63689
-4.63911
-4.63553
-4.6346
-4.7666
-4.76885
-4.76472
-4.76394
-4.92101
-4.89839
-4.90267
-4.89581
-5.03587
-5.02095
-5.02486
-5.01974
-5.14278
-5.15617
-5.14847
-5.15372
-5.26848
-5.27979
-5.27327
-5.27743
-5.40538
-5.4129
-5.40753
-5.41216
-5.53095
-5.53528
-5.53091
-5.53382
-5.66663
-5.66755
-5.66863
-5.66894
-8.64712
-8.01614
-7.34405
-6.2261
-5.51925
-4.83566
-4.32816
-3.92458
-3.61015
-3.31145
-3.09077
-2.90958
-2.75944
-2.63221
-2.52512
-2.43157
-2.36641
-2.31869
-2.29797
-10.0298
-9.02882
-8.636
-6.78927
-5.76454
-4.82766
-4.23925
-3.79651
-3.47669
-3.23815
-3.06344
-2.87614
-2.77583
-2.65812
-2.56419
-2.47898
-2.41914
-2.37685
-2.35578
-14.0542
-12.4237
-10.0405
-7.07583
-5.27195
-4.33225
-4.03159
-3.49102
-3.24917
-3.1688
-3.01638
-2.87542
-2.78341
-2.67507
-2.59178
-2.51692
-2.46194
-2.42319
-2.40525
-22.051
-16.7253
-10.957
-6.86564
-5.09197
-4.31099
-3.58789
-3.39605
-3.19874
-3.09308
-2.97735
-2.86622
-2.77685
-2.68559
-2.60935
-2.54659
-2.50123
-2.47304
-2.4633
-22.3442
-14.7719
-10.463
-6.18844
-4.52854
-3.89936
-3.43818
-3.27113
-3.1171
-3.01884
-2.92878
-2.8385
-2.76201
-2.68284
-2.6214
-2.57174
-2.5397
-2.52574
-2.51752
-15.9975
-9.63297
-6.44721
-5.01703
-3.80886
-3.40067
-3.16838
-3.0839
-2.99527
-2.9276
-2.86528
-2.79686
-2.73013
-2.67398
-2.6291
-2.59636
-2.58338
-2.57126
-2.56496
-4.59888
-3.50565
-2.39955
-3.30265
-3.04607
-2.87102
-2.86603
-2.86835
-2.84895
-2.82213
-2.78642
-2.73941
-2.69732
-2.66183
-2.64027
-2.63116
-2.62076
-2.61235
-2.60802
2.24422
0.416367
-0.699285
-1.15895
-2.30453
-2.38819
-2.55359
-2.64323
-2.68743
-2.69934
-2.69588
-2.68125
-2.66422
-2.662
-2.66474
-2.66011
-2.65535
-2.65085
-2.64853
2.9445
1.53333
0.417782
-0.366385
-1.54432
-1.94926
-2.2408
-2.42026
-2.52534
-2.56992
-2.59895
-2.63168
-2.66591
-2.67749
-2.68546
-2.68761
-2.68831
-2.68755
-2.68711
2.31645
1.35892
0.423197
-0.379484
-0.924035
-1.62407
-1.94094
-2.20418
-2.37604
-2.49551
-2.58299
-2.62467
-2.66655
-2.68852
-2.70623
-2.71527
-2.7215
-2.72427
-2.72563
1.32827
0.825382
0.168786
-0.405023
-0.997663
-1.31652
-1.85709
-2.09239
-2.31121
-2.44646
-2.55231
-2.61692
-2.67054
-2.7029
-2.72859
-2.74399
-2.75494
-2.76084
-2.76378
0.427564
0.21673
-0.183423
-0.631251
-1.03249
-1.44977
-1.67984
-2.06804
-2.27436
-2.41813
-2.53577
-2.60669
-2.68
-2.71973
-2.75442
-2.77544
-2.79097
-2.7997
-2.8041
-0.221019
-0.313119
-0.565612
-0.874594
-1.21324
-1.50006
-1.80928
-1.97442
-2.27703
-2.41306
-2.53863
-2.62029
-2.69815
-2.74409
-2.78363
-2.80918
-2.82806
-2.83913
-2.8447
-0.736578
-0.760588
-0.921747
-1.14597
-1.39535
-1.65073
-1.8771
-2.10581
-2.28679
-2.41986
-2.54411
-2.60408
-2.72298
-2.77263
-2.81896
-2.84846
-2.8705
-2.88351
-2.89009
-1.11333
-1.14245
-1.23978
-1.40194
-1.59855
-1.79616
-1.9975
-2.16774
-2.33937
-2.47282
-2.58861
-2.68054
-2.75566
-2.80981
-2.85639
-2.88847
-2.91251
-2.92715
-2.93454
-1.48223
-1.46608
-1.54734
-1.64587
-1.79844
-1.96408
-2.12535
-2.27809
-2.42079
-2.53898
-2.64526
-2.72554
-2.80473
-2.86043
-2.90791
-2.94123
-2.9663
-2.98173
-2.98953
-1.75413
-1.7378
-1.81337
-1.88456
-1.99774
-2.12945
-2.26624
-2.39332
-2.51733
-2.6243
-2.72036
-2.79914
-2.86835
-2.92237
-2.96719
-3.00028
-3.02504
-3.04064
-3.04849
-2.0091
-1.98439
-2.0331
-2.10907
-2.19626
-2.29756
-2.41104
-2.52116
-2.62671
-2.7204
-2.80635
-2.87801
-2.94226
-2.99323
-3.03601
-3.06819
-3.09237
-3.10776
-3.11551
-2.23105
-2.21007
-2.237
-2.29911
-2.38233
-2.47225
-2.55851
-2.65116
-2.74482
-2.82664
-2.90244
-2.96764
-3.02569
-3.07293
-3.11237
-3.14301
-3.16596
-3.18076
-3.18819
-2.43701
-2.4153
-2.43309
-2.48109
-2.54976
-2.6266
-2.72067
-2.78658
-2.86723
-2.939
-3.00694
-3.06419
-3.11671
-3.15974
-3.19601
-3.22481
-3.24641
-3.26035
-3.26738
-2.62833
-2.60865
-2.61796
-2.65657
-2.7112
-2.77745
-2.84795
-2.923
-3.00538
-3.05586
-3.11557
-3.16652
-3.21496
-3.25287
-3.285
-3.3127
-3.33292
-3.34598
-3.35258
-2.80733
-2.78615
-2.79601
-2.82672
-2.8727
-2.9298
-2.98915
-3.05205
-3.1173
-3.18133
-3.23551
-3.27334
-3.31804
-3.35135
-3.38069
-3.40597
-3.42487
-3.43622
-3.44219
-2.97684
-2.96019
-2.96304
-2.98899
-3.02385
-3.07575
-3.13037
-3.18379
-3.23923
-3.29212
-3.34196
-3.38371
-3.43309
-3.45366
-3.47476
-3.50496
-3.52316
-3.53351
-3.53921
-3.13463
-3.11595
-3.13052
-3.14818
-3.1825
-3.22172
-3.26737
-3.32093
-3.3672
-3.41233
-3.45761
-3.49646
-3.53369
-3.56048
-3.58674
-3.60684
-3.62463
-3.62991
-3.63445
-3.3045
-3.2984
-3.28025
-3.29668
-3.31787
-3.36686
-3.40508
-3.44953
-3.49099
-3.53082
-3.57238
-3.60938
-3.64452
-3.66903
-3.69463
-3.70858
-3.7267
-3.73285
-3.7369
-3.41913
-3.38629
-3.4494
-3.45817
-3.49209
-3.50745
-3.5407
-3.58735
-3.61896
-3.6627
-3.6935
-3.72367
-3.75594
-3.77941
-3.79951
-3.81694
-3.82695
-3.83485
-3.83857
-3.68078
-3.67202
-3.56493
-3.57623
-3.5758
-3.65539
-3.68841
-3.70839
-3.73779
-3.7763
-3.80674
-3.84061
-3.86949
-3.88917
-3.90466
-3.92319
-3.93757
-3.94495
-3.94913
-3.79141
-3.78607
-3.81659
-3.81596
-3.83084
-3.77789
-3.80053
-3.85977
-3.87041
-3.91916
-3.92867
-3.96573
-3.98386
-4.00315
-4.01955
-4.03149
-4.04004
-4.04553
-4.04785
-3.9486
-3.94024
-3.92426
-3.92546
-3.93897
-3.97822
-4.0011
-3.96002
-3.98978
-4.00156
-4.04558
-4.08084
-4.09702
-4.11879
-4.13231
-4.14216
-4.1597
-4.16889
-4.17116
-4.08672
-4.08151
-4.08401
-4.08511
-4.09501
-4.101
-4.11774
-4.16529
-4.17667
-4.19806
-4.16832
-4.20004
-4.21509
-4.2403
-4.25245
-4.25359
-4.25596
-4.2597
-4.26089
-4.22639
-4.22146
-4.21662
-4.21972
-4.22679
-4.23872
-4.25234
-4.25829
-4.27507
-4.29235
-4.3379
-4.34442
-4.33063
-4.3467
-4.35754
-4.37697
-4.39603
-4.40059
-4.40571
-4.36218
-4.35907
-4.35716
-4.35966
-4.36606
-4.37508
-4.387
-4.40501
-4.41681
-4.4341
-4.43911
-4.47055
-4.48698
-4.50535
-4.50057
-4.47826
-4.47265
-4.47552
-4.47533
-4.49597
-4.49431
-4.49076
-4.49371
-4.49822
-4.50557
-4.51501
-4.52505
-4.53772
-4.5501
-4.5671
-4.57836
-4.58557
-4.59863
-4.62637
-4.64763
-4.66269
-4.67133
-4.67562
-4.62916
-4.62794
-4.62652
-4.62915
-4.6335
-4.64
-4.64854
-4.65826
-4.66844
-4.68001
-4.69033
-4.70406
-4.7134
-4.72266
-4.72577
-4.72521
-4.72066
-4.72219
-4.72196
-4.75939
-4.75826
-4.75654
-4.75891
-4.76216
-4.76748
-4.77423
-4.78168
-4.79066
-4.79961
-4.81
-4.81903
-4.82806
-4.83729
-4.84802
-4.85772
-4.8636
-4.86869
-4.87056
-4.89409
-4.89165
-4.89127
-4.89343
-4.8966
-4.90136
-4.90724
-4.9139
-4.92129
-4.92887
-4.93687
-4.94484
-4.95177
-4.95779
-4.96236
-4.96579
-4.96689
-4.96886
-4.96929
-5.01975
-5.01695
-5.01693
-5.01855
-5.02108
-5.02501
-5.02964
-5.03495
-5.04098
-5.04704
-5.0534
-5.0597
-5.06563
-5.07192
-5.07702
-5.08221
-5.08521
-5.08806
-5.08904
-5.14887
-5.15318
-5.15163
-5.15534
-5.15716
-5.16107
-5.16505
-5.16984
-5.17493
-5.18011
-5.18531
-5.19059
-5.19543
-5.20024
-5.20368
-5.20681
-5.20853
-5.21019
-5.21073
-5.27216
-5.27554
-5.27307
-5.27528
-5.27558
-5.27821
-5.2805
-5.28357
-5.28682
-5.29027
-5.29384
-5.29751
-5.30106
-5.30458
-5.30733
-5.31003
-5.31169
-5.31316
-5.3137
-5.40779
-5.41361
-5.41279
-5.41708
-5.41911
-5.42301
-5.42611
-5.42967
-5.43314
-5.43662
-5.44001
-5.4433
-5.44631
-5.44915
-5.45138
-5.45337
-5.45463
-5.45569
-5.45606
-5.52838
-5.53064
-5.527
-5.52749
-5.52619
-5.5265
-5.52653
-5.52713
-5.52784
-5.52874
-5.52975
-5.53084
-5.5319
-5.533
-5.53388
-5.53474
-5.53527
-5.53575
-5.53594
-5.67158
-5.67455
-5.67829
-5.6818
-5.68531
-5.6886
-5.69167
-5.6945
-5.69707
-5.6994
-5.70148
-5.70334
-5.70495
-5.70634
-5.70748
-5.70839
-5.70903
-5.70948
-5.70949
)
;

boundaryField
{
    leftWall
    {
        type            calculated;
        value           nonuniform List<scalar> 
50
(
2200.97
2142.15
2083.28
2024.59
1965.66
1907.24
1848.07
1790.53
1696.6
1578
1448.59
1316.29
1186.92
1060.3
936.384
817.039
699.753
585.885
475.941
375.134
235.684
123.945
55.3249
-22.8092
-18.2882
-7.60732
-4.76645
-3.50113
-3.53446
-3.23312
-3.98146
-3.87519
-4.01452
-4.05066
-4.14415
-4.19408
-4.2978
-4.35955
-4.44972
-4.5406
-4.64649
-4.7515
-4.86531
-4.97714
-5.09662
-5.20534
-5.33998
-5.43462
-5.59966
-5.64723
)
;
    }
    rightWall
    {
        type            calculated;
        value           nonuniform List<scalar> 
50
(
-1.93748
-1.99297
-2.04459
-2.09217
-2.13583
-2.17609
-2.2131
-2.24736
-2.29797
-2.35578
-2.40525
-2.4633
-2.51752
-2.56496
-2.60802
-2.64853
-2.68711
-2.72563
-2.76378
-2.8041
-2.8447
-2.89009
-2.93454
-2.98953
-3.04849
-3.11551
-3.18819
-3.26738
-3.35258
-3.44219
-3.53921
-3.63445
-3.7369
-3.83857
-3.94913
-4.04785
-4.17116
-4.26089
-4.40571
-4.47533
-4.67562
-4.72196
-4.87056
-4.96929
-5.08904
-5.21073
-5.3137
-5.45606
-5.53594
-5.70949
)
;
    }
    lowerWall
    {
        type            calculated;
        value           nonuniform List<scalar> 
62
(
2230.4
2213.41
2201.65
2151.38
2125.73
2043.35
1997.8
1901.57
1835.56
1754.31
1751.56
1781.87
1582.66
1508.07
1359.69
1176.47
1041.28
567.194
537.319
465.775
530.682
905.212
979.524
974.201
896.258
797.152
672.094
586.185
454.296
216.408
100.503
-8.62803
-7.50361
-8.46527
-8.4744
-5.69801
-5.78602
-5.91023
-6.07211
-6.28737
-6.69467
-7.20558
-8.07759
-5.66858
-5.66372
-5.47493
-5.16145
-4.79046
-4.45934
-4.15326
-3.86401
-3.58289
-3.29464
-3.0258
-2.71846
-2.49732
-2.31624
-2.16433
-2.05708
-1.98065
-1.93269
-1.90805
)
;
    }
    atmosphere
    {
        type            calculated;
        value           nonuniform List<scalar> 
46
(
-5.74608
-5.74616
-5.74575
-5.74515
-5.74438
-5.74348
-5.74244
-5.74136
-5.74017
-5.73911
-5.7379
-5.73723
-5.73619
-5.73703
-5.73675
-5.73603
-5.73415
-5.73262
-5.73113
-5.73005
-5.72935
-5.72907
-5.72905
-5.72904
-5.72904
-5.72904
-5.72904
-5.72904
-5.72904
-5.72904
-5.72904
-5.72904
-5.72904
-5.72904
-5.72904
-5.72904
-5.72904
-5.72904
-5.72904
-5.72904
-5.72904
-5.72904
-5.72904
-5.72904
-5.72904
-5.72904
)
;
    }
    defaultFaces
    {
        type            empty;
    }
}


// ************************************************************************* //
