/*--------------------------------*- C++ -*----------------------------------*\
| =========                 |                                                 |
| \\      /  F ield         | foam-extend: Open Source CFD                    |
|  \\    /   O peration     | Version:     4.1                                |
|   \\  /    A nd           | Web:         http://www.foam-extend.org         |
|    \\/     M anipulation  |                                                 |
\*---------------------------------------------------------------------------*/
FoamFile
{
    version     2.0;
    format      ascii;
    class       volScalarField;
    location    "0.1";
    object      pd;
}
// * * * * * * * * * * * * * * * * * * * * * * * * * * * * * * * * * * * * * //

dimensions      [1 -1 -2 0 0 0 0];

internalField   nonuniform List<scalar> 
2268
(
2230.4
2213.41
2201.65
2151.38
2125.73
2043.35
1997.8
1901.57
1835.56
1754.31
1751.56
1781.87
1582.66
1508.07
1359.69
1176.47
1041.28
567.194
537.319
465.775
530.682
905.212
979.524
2230.44
2213.49
2201.56
2151.49
2125.48
2043.07
1997.18
1902.37
1826.94
1731.66
1831.78
1738.99
1569.77
1495.05
1342.05
1162.03
1254.9
572.321
525.88
464.799
433.907
662.001
909.664
2230.43
2213.63
2201.37
2151.77
2125.43
2042.52
1997.07
1897.66
1828.78
1732.22
1817.14
1703.28
1567.47
1491.61
1339.23
1183.09
883.278
519.79
460.437
429.317
461.264
664.025
816.156
2230.6
2213.89
2201.11
2152.22
2124.37
2041.75
1997.08
1891.46
1819.9
1821.2
1766.04
1678.35
1554.41
1454.99
1300.19
1078.08
863.624
694.211
571.111
469.628
377.364
490.034
693.932
2230.52
2214.2
2200.75
2152.77
2124.5
2041
1994.85
1912.94
1792.19
1839.42
1736.08
1656.4
1539.68
1438.36
1250.54
1008.95
766.566
537.158
427.134
319.539
291.616
328.366
609.495
2230.96
2214.62
2200.28
2153.95
2122.4
2041.8
1981.83
1875.45
1869.87
1810.99
1713.82
1631.62
1506.5
1406.69
1194.22
926.638
663.644
545.922
405.914
323.151
228.923
242.922
477.888
2230.65
2215.16
2199.9
2154.35
2122.64
2031.56
2009.95
1854.08
1883.07
1797.16
1693.43
1613.68
1476.35
1360.78
1133.15
846.2
583.745
389.585
242.78
203.463
182.216
170.973
239.716
2231.97
2215.8
2199.08
2148.76
2112.99
2052.71
1963.83
1896.39
1866.21
1778.75
1676.78
1568.31
1475.33
1363.45
1070.13
762.637
482.371
288.712
221.085
149.543
121.554
116.275
123.126
-5.66858
-5.66372
-5.47493
-5.16145
-4.79046
-4.45934
-4.15326
-3.86401
-3.58289
-3.29464
-3.0258
-2.71846
-2.49732
-2.31624
-2.16433
-2.05708
-1.98065
-1.93269
-1.90805
-5.69773
-5.71871
-5.4946
-5.17449
-4.79502
-4.4585
-4.14813
-3.85403
-3.5705
-3.2819
-3.01511
-2.72007
-2.4904
-2.30565
-2.15906
-2.05343
-1.97702
-1.92908
-1.90468
-5.76308
-5.77435
-5.53425
-5.20086
-4.80105
-4.45972
-4.14313
-3.83533
-3.54267
-3.24819
-2.99411
-2.69572
-2.47142
-2.29184
-2.14948
-2.04569
-1.96989
-1.92176
-1.89744
-5.8661
-5.85483
-5.60161
-5.24226
-4.8081
-4.45986
-4.12701
-3.81049
-3.50442
-3.20391
-2.9433
-2.66091
-2.44781
-2.27343
-2.13555
-2.03409
-1.95948
-1.91077
-1.88616
-6.02251
-5.96639
-5.7136
-5.30721
-4.82739
-4.4554
-4.10044
-3.76473
-3.44101
-3.1512
-2.87149
-2.62993
-2.41998
-2.25078
-2.11768
-2.01869
-1.94523
-1.89616
-1.87096
-6.37094
-6.16792
-5.89167
-5.37484
-4.82162
-4.4399
-4.06227
-3.70571
-3.37214
-3.0793
-2.81575
-2.58038
-2.3828
-2.22446
-2.09583
-1.99927
-1.92645
-1.87784
-1.85237
-6.82296
-6.42757
-6.14659
-5.53257
-4.86531
-4.43022
-4.01262
-3.62986
-3.27535
-3.02761
-2.76051
-2.52515
-2.34136
-2.19316
-2.07037
-1.97503
-1.90357
-1.85569
-1.83052
-7.63593
-6.75949
-6.44374
-5.56818
-4.91529
-4.37377
-3.91636
-3.53964
-3.20871
-2.93815
-2.67335
-2.46317
-2.29737
-2.15875
-2.04158
-1.9473
-1.87797
-1.82948
-1.80592
2230.06
2217.13
2192.24
2179.27
2122.88
1977.53
2021.82
1890.59
1854.49
1760.42
1638.48
1493.21
1245.07
1351.78
986.306
661.363
371.024
167.5
96.4209
85.0214
46.8583
49.998
-6.6882
2236.66
2218.72
2194.16
2113.36
2133.9
2030.69
1992.95
1915.21
1845.62
1751.76
1631.27
1493.75
1246.26
1172.78
809.389
399.35
198.912
80.6918
45.3107
33.1011
16.2322
14.1241
8.0142
2232.45
2215.86
2195.81
2142.62
2118.55
2049.53
2003.33
1916.61
1847.07
1737.24
1631.67
1489.17
1289.72
1148.91
693.426
305.861
92.1607
42.0749
18.4609
10.9181
5.88639
7.3826
5.52695
2225.34
2209.81
2195.43
2150.24
2123.28
2057.93
2005.82
1928.28
1852.65
1743.54
1635.69
1481.03
1268.15
1038.24
515.933
171.809
50.7767
12.4767
2.75548
1.84887
3.74712
1.73764
-2.6744
2221.17
2208.63
2192.2
2155.14
2122.51
2066.69
2014.1
1937.59
1863.61
1755.57
1651.73
1492
1277.7
895.633
348.252
84.6683
16.44
2.73953
0.152253
0.0453068
0.898421
-0.0729135
8.81837
2219.74
2208.57
2193.42
2161.07
2129.06
2077.97
2025.25
1954.95
1884.01
1782.28
1678.75
1510.72
1268.04
709.649
187.202
31.2988
4.44283
-0.0434087
-0.400445
-0.509099
-0.518757
-1.42147
-0.286868
2221.02
2212.07
2196.48
2169.23
2136.77
2091
2040.22
1976.09
1912.64
1822.44
1727.07
1547.28
1210.34
498.715
86.8947
6.23138
-0.335883
-0.520344
-0.423753
-0.715191
-1.1867
-2.54389
-3.62876
2226.87
2219.26
2205.34
2181.91
2152.19
2109.46
2061.92
1995.88
1930.84
1837.7
1753.49
1573.87
1072.83
294
24.9702
-0.236943
-0.0531248
-0.437172
-0.524456
-0.868003
-1.23901
-2.2532
-5.39812
2234.76
2228.7
2215.79
2196.04
2167.81
2125.6
2084.95
2006.87
1960.84
1886.12
1823.14
1574.65
869.625
149.196
0.00768737
-1.11177
-0.436622
-0.300982
-0.434284
-0.812778
-0.972258
-1.91407
-4.39405
2245.78
2241.44
2231.8
2218.21
2193.87
2162.65
2116.76
2083.47
2149.89
2173.02
2093.48
1611.76
662.466
76.9519
1.20794
0.0634133
-0.172651
-0.170203
-0.348244
-0.428927
-0.49037
-0.819428
-1.44718
2258.68
2255.34
2248.46
2238.17
2216.78
2185.03
2107.91
2021.29
1694.95
1723.63
1614.54
1557.2
544.576
50.3607
1.17505
0.269284
-0.0186171
0.0157145
-0.164326
-0.307851
-0.212863
-0.237496
0.0483194
2270.57
2268.46
2265.74
2262.84
2261.14
2235.69
2179.19
2106.55
2004.61
1977.19
1947.94
1662.49
674.011
77.4026
-1.08133
-0.182653
-0.346458
-0.164525
-0.223891
-0.203542
-0.0794881
0.063309
0.476605
2205.02
2202.99
2199.7
2197.28
2205.05
2162.96
2120.15
2042.3
2021.81
2070.17
2072.24
1640.5
529.533
85.4795
18.3532
-0.838
-0.944003
-0.667483
-0.375922
-0.334588
-0.20422
0.0100029
0.649793
2046.72
2041.39
2032.65
2017.51
2001.1
1933.66
1888.19
1808.68
1840.31
2007.97
2007.46
1326.92
540.575
193.5
51.5769
-2.4947
-1.84694
-1.14519
-0.554508
-0.315186
0.0384183
0.229989
0.540177
1616.26
1600.63
1574.06
1530.59
1462.01
1415.14
1383.75
1354.39
1699.21
1704.53
1956.39
1848.23
941.007
257.909
46.131
-4.4356
-2.55573
-1.57124
-1.04409
-0.616186
-0.350661
0.0919751
0.440971
743.154
728.841
698.242
664.12
614.495
586.565
567.789
580.619
790.762
995.425
1191.29
1107.84
627.114
104.251
7.46393
-2.09011
-1.55705
-1.38231
-0.66364
-0.300708
-0.10345
0.113066
0.339302
194.084
188.981
175.685
168.518
155.183
144.248
144.236
148.796
210.752
287.795
398.912
345.018
181.237
22.2523
-1.7484
-1.2617
-0.939401
-0.902642
-0.447258
-0.320987
-0.100778
0.124586
0.280181
22.2628
21.3376
19.4545
17.5062
14.8834
13.4549
13.2169
14.6717
27.349
46.1111
71.779
60.5685
19.7479
-1.7254
-0.561675
-0.899494
-0.749438
-0.526132
-0.367484
-0.238896
-0.0945566
0.144386
0.185183
-1.97949
-1.95367
-1.87967
-1.9307
-1.97674
-1.9778
-2.13704
-2.2194
-2.35061
-2.31484
-0.865907
-1.74112
-0.975268
-0.53808
-0.868806
-0.858842
-0.789524
-0.334185
-0.301495
-0.138879
-0.184123
0.118091
0.279912
-0.588962
-0.627426
-0.661162
-0.80504
-0.833364
-0.876134
-0.816952
-0.821514
-0.794888
-0.677332
-0.663261
-0.813107
-0.81061
-0.982645
-0.585106
-0.697915
-0.610248
-0.502206
-0.276503
-0.12728
0.0236162
0.0994871
0.205399
-0.497106
-0.496049
-0.493699
-0.511368
-0.520962
-0.559999
-0.602942
-0.657428
-0.704307
-1.1431
-0.960453
-0.87958
-0.822289
-0.1964
-0.364021
-0.716408
-0.510815
-0.340691
-0.253726
-0.124737
-0.0383314
0.0996828
0.198381
-0.0705681
-0.0729969
-0.0821538
-0.106167
-0.124162
-0.156093
-0.191332
-0.228707
-0.484016
-0.772017
-0.370318
-0.476422
-0.496923
-0.301674
-0.478621
-0.468785
-0.43958
-0.312614
-0.238665
-0.0861087
-0.0183435
0.0950153
0.173504
-0.520149
-0.529282
-0.537297
-0.558878
-0.568629
-0.581668
-0.586016
-0.57328
-0.731328
-0.683519
-0.234799
-0.377272
-0.332557
-0.269044
-0.116447
-0.49983
-0.435304
-0.258739
-0.207868
-0.0951516
-0.013518
0.0906564
0.16057
-0.385541
-0.394175
-0.39799
-0.418822
-0.420535
-0.441187
-0.416008
-0.422358
-0.541105
-0.260254
-0.234402
-0.240279
-0.309191
-0.257657
-0.231264
-0.0551035
-0.389192
-0.331828
-0.181805
-0.0290218
-0.013924
0.0605129
0.118024
-0.468945
-0.475172
-0.476262
-0.49807
-0.496814
-0.502988
-0.478291
-0.654043
-0.268686
-0.317464
-0.257833
-0.260255
-0.236012
-0.202508
-0.165933
-0.120428
-0.209999
-0.222522
-0.197945
-0.14394
0.00651807
0.100067
0.168397
-0.387326
-0.387838
-0.395966
-0.394936
-0.393701
-0.378933
-0.516934
-0.227109
-0.239643
-0.230963
-0.221735
-0.201804
-0.195949
-0.166053
-0.135543
-0.115094
-0.067675
-0.199667
-0.141135
-0.0949886
-0.0822086
-0.0251258
0.0252698
-0.355629
-0.356546
-0.3633
-0.361102
-0.39068
-0.38974
-0.203698
-0.234765
-0.209566
-0.19926
-0.176734
-0.164855
-0.14846
-0.131993
-0.104817
-0.08898
-0.0879586
0.0321769
-0.162887
-0.055849
-0.0249909
0.0292791
0.0568228
-0.280361
-0.287002
-0.264013
-0.341417
-0.19173
-0.256321
-0.199328
-0.195351
-0.173528
-0.163072
-0.149587
-0.133182
-0.126451
-0.102483
-0.0965305
-0.0471613
-0.0646509
-0.0153361
-0.0692467
-0.0635939
-0.0373134
0.0110726
0.037445
-0.258869
-0.250505
-0.261035
-0.194015
-0.191683
-0.19695
-0.168587
-0.16182
-0.144609
-0.13445
-0.118608
-0.108454
-0.0959348
-0.0826481
-0.066998
-0.0500956
-0.0414274
-0.0181409
0.00465153
-0.0433912
-0.024843
0.0124563
0.0317621
-0.195442
-0.190603
-0.187789
-0.165436
-0.162026
-0.153398
-0.139607
-0.132521
-0.119659
-0.110311
-0.0999647
-0.0881742
-0.0796796
-0.0668865
-0.0495891
-0.0442221
-0.0201108
-0.012897
-0.0205189
0.053673
-0.0509197
0.0175971
0.0259009
-0.160414
-0.156634
-0.154821
-0.144148
-0.137342
-0.128008
-0.118124
-0.109356
-0.0989311
-0.090469
-0.0800443
-0.0714739
-0.0627203
-0.052637
-0.0397465
-0.0281212
-0.0168837
0.00316557
-0.00275473
0.0323564
-0.00447806
0.00322084
0.0157077
-0.126103
-0.124085
-0.120893
-0.115513
-0.110115
-0.104535
-0.096741
-0.0904019
-0.0822162
-0.074737
-0.0667218
-0.0585013
-0.0508198
-0.0423568
-0.0296673
-0.0223554
-0.00969759
-0.00250494
0.00502552
0.0184227
0.0288663
0.0166064
0.018242
-0.106801
-0.104935
-0.10308
-0.0980872
-0.0940807
-0.0877546
-0.0818709
-0.0752227
-0.0680494
-0.0614537
-0.053788
-0.0470688
-0.0401596
-0.0325352
-0.0233417
-0.0140147
-0.0114365
0.00885681
0.00796115
0.0256696
0.0104207
0.0519017
-0.0118993
-0.0866119
-0.0856614
-0.083549
-0.0807773
-0.0769772
-0.072994
-0.0678424
-0.0629959
-0.056968
-0.0517359
-0.0450354
-0.039933
-0.0328595
-0.0277911
-0.0174157
-0.0108738
-0.00376983
0.00490169
0.00796559
0.0228391
0.0144952
0.0517806
0.0129572
-0.0752285
-0.0742285
-0.0726187
-0.06977
-0.0665885
-0.0625032
-0.0578549
-0.0531765
-0.047258
-0.0424664
-0.0357293
-0.030885
-0.0245699
-0.0191723
-0.0114427
-0.00576419
0.00174243
0.00512744
0.0126044
0.0199957
0.0154795
0.0344105
0.00870634
-0.0618652
-0.0611996
-0.0597394
-0.0577574
-0.0550027
-0.0520582
-0.0481259
-0.0447687
-0.0397427
-0.0368446
-0.0306283
-0.0290787
-0.0215888
-0.0208584
-0.0102275
-0.00747175
0.000336642
0.00362109
0.0112424
0.0113722
0.021042
0.010389
0.0437654
-0.0561535
-0.0554805
-0.0541491
-0.0521913
-0.0495632
-0.0466377
-0.0426439
-0.0392992
-0.0338357
-0.0305576
-0.0237168
-0.0195545
-0.0136843
-0.00394696
-0.00531093
0.00013531
0.0052973
0.00791472
0.0138768
0.0140371
0.0205494
0.013294
0.0334416
-0.0396714
-0.0392385
-0.038306
-0.0370537
-0.0352634
-0.0335259
-0.0308745
-0.0292112
-0.0252864
-0.0248804
-0.0185137
-0.0232634
-0.00711488
-0.0274421
-0.00761788
-0.00798475
-0.000247475
0.00136262
0.00693494
0.00873206
0.0125671
0.0138361
0.0166999
-0.0491195
-0.0486148
-0.0475407
-0.0460203
-0.0439013
-0.0415338
-0.0383393
-0.0354013
-0.0310171
-0.0279386
-0.0222824
-0.0195994
-0.0130976
-0.0113071
-0.00321969
0.00158845
0.0064457
0.00876498
0.0117189
0.0136558
0.0125235
0.0179402
0.0101673
-0.0185683
-0.0183046
-0.0177092
-0.0169228
-0.0158293
-0.0147699
-0.0132725
-0.0124459
-0.0105251
-0.0108097
-0.00819911
-0.010757
-0.00692624
-0.012303
-0.00705368
-0.00876435
-0.00418803
-0.0031977
0.000260448
0.00276466
0.00254827
0.0068903
0.00125376
-0.0584098
-0.0579962
-0.0568815
-0.0552796
-0.0530722
-0.0504631
-0.0472037
-0.043778
-0.0393785
-0.0353117
-0.0295021
-0.024824
-0.017103
-0.0112875
-4.85602e-05
0.00797144
0.0098241
0.010565
0.0100392
0.0102146
0.00783644
0.0099564
0.00617791
0.0192146
0.0191556
0.0190392
0.0187354
0.0183567
0.0177975
0.0170754
0.0159739
0.0147129
0.0125304
0.0105152
0.00593609
0.00309773
-0.00797719
-0.011155
-0.0181461
-0.0130718
-0.0129643
-0.00812958
-0.00774382
-0.00366677
0.000602378
-0.00228683
-6.93422
-7.03274
-7.9944
-8.00353
-7.50315
-7.79682
-7.59297
-8.4264
-9.77054
-14.5258
-14.2055
-12.9154
-7.57718
-14.1999
-20.1798
-21.4934
0.312994
-9.69962
-14.4032
-16.7504
-0.463448
-2.50638
-3.96883
-6.38167
-3.95032
-4.26902
-2.50098
-1.22845
-5.87146
-4.41945
0.378361
4.347
-3.00436
0.572509
2.59965
4.48708
-0.0839048
1.14496
2.40777
3.45955
0.975487
1.5943
2.25289
2.78861
1.07965
1.45861
1.8271
2.1267
0.992124
1.22965
1.44115
1.61225
0.821843
0.99385
1.14494
1.2765
0.688828
0.826948
0.934121
1.05616
0.519559
0.621801
0.661591
0.801016
0.451019
0.468261
0.617148
0.66483
0.391637
0.474628
0.529206
0.587857
0.34479
0.39981
0.456343
0.495122
0.296583
0.345288
0.390148
0.423254
0.269026
0.304566
0.339914
0.366447
0.232082
0.263296
0.295265
0.317109
0.211995
0.238876
0.261685
0.280345
0.166391
0.193611
0.222622
0.244588
0.204261
0.230978
0.213278
0.218167
0.0753742
0.0880285
0.162832
0.202097
0.0784711
0.0832729
0.0803509
0.08803
0.0635655
0.0751856
0.0919603
0.103847
0.0504484
0.0585965
0.0686163
0.0759108
0.0438522
0.0506946
0.0600456
0.0655034
0.0332071
0.0378914
0.0468168
0.0507176
0.0316193
0.0347961
0.0411213
0.0441893
0.0272725
0.0246135
0.0334593
0.0347166
0.0279967
0.0257782
0.0293608
0.0302864
0.0234795
0.0212262
0.0253653
0.026138
-0.00573873
0.0168867
0.0126099
0.0194633
0.00459935
0.0195174
0.0156081
0.020727
0.0228812
0.00949849
0.017199
0.0119441
0.0223799
0.0110731
0.017593
0.0134292
0.0106729
0.00315534
0.00852399
0.00389424
0.0103019
0.00596803
0.0103383
0.00742919
-0.000187254
-0.00110619
-0.00218638
-0.00249691
-8.11194
-7.48159
-6.81058
-5.69263
-4.98578
-4.30219
-3.79469
-3.39111
-3.07668
-2.77798
-2.55731
-2.37611
-2.22597
-2.09874
-1.99166
-1.8981
-1.83294
-1.78522
-1.7645
-9.35753
-8.35207
-7.97626
-6.1306
-5.10588
-4.169
-3.58058
-3.13785
-2.81803
-2.57949
-2.40478
-2.21748
-2.11716
-1.99946
-1.90553
-1.82032
-1.76048
-1.71819
-1.69712
-13.131
-11.5327
-9.24467
-6.29198
-4.4881
-3.54839
-3.24773
-2.70717
-2.46531
-2.38495
-2.23253
-2.09156
-1.99956
-1.89122
-1.80792
-1.73307
-1.67809
-1.63933
-1.62139
-20.0989
-15.3506
-9.98965
-5.95509
-4.18292
-3.40194
-2.67884
-2.487
-2.28969
-2.18403
-2.0683
-1.95717
-1.8678
-1.77654
-1.7003
-1.63754
-1.59218
-1.56399
-1.55425
-18.5013
-12.6803
-9.26163
-5.14389
-3.49429
-2.86511
-2.40394
-2.23688
-2.08285
-1.9846
-1.89453
-1.80426
-1.72776
-1.64859
-1.58716
-1.53749
-1.50545
-1.4915
-1.48328
-11.2478
-7.05179
-4.97171
-3.8316
-2.64866
-2.24123
-2.00894
-1.92446
-1.83583
-1.76816
-1.70584
-1.63742
-1.57069
-1.51454
-1.46966
-1.43692
-1.42394
-1.41182
-1.40552
0.362874
-0.986989
-0.908871
-2.0049
-1.76122
-1.58639
-1.5814
-1.58371
-1.56431
-1.53749
-1.50178
-1.45478
-1.41269
-1.3772
-1.35564
-1.34652
-1.33613
-1.32772
-1.32339
6.3611
2.42219
0.784308
0.255532
-0.894653
-0.978361
-1.14376
-1.2334
-1.2776
-1.28951
-1.28605
-1.27142
-1.25439
-1.25217
-1.25491
-1.25028
-1.24552
-1.24102
-1.2387
5.43413
3.20704
1.96382
1.16895
-0.00929759
-0.414238
-0.705775
-0.885238
-0.99032
-1.0349
-1.06393
-1.09665
-1.13089
-1.14247
-1.15044
-1.15258
-1.15328
-1.15253
-1.15209
4.1531
3.03618
2.08406
1.28073
0.736183
0.0361455
-0.28072
-0.543964
-0.715827
-0.83529
-0.922769
-0.964453
-1.00633
-1.0283
-1.04602
-1.05506
-1.06128
-1.06405
-1.06542
3.13229
2.6117
1.9542
1.38039
0.78775
0.468893
-0.0716766
-0.306974
-0.525797
-0.661051
-0.766899
-0.831512
-0.885128
-0.91749
-0.943182
-0.958582
-0.969525
-0.97543
-0.97837
2.33915
2.12734
1.72718
1.27936
0.878114
0.460834
0.230769
-0.157431
-0.363751
-0.507519
-0.625164
-0.696079
-0.769392
-0.809125
-0.843812
-0.864835
-0.880366
-0.889093
-0.893494
1.81478
1.72268
1.47019
1.16121
0.822562
0.535745
0.226519
0.061382
-0.241232
-0.377256
-0.502828
-0.584486
-0.662352
-0.708288
-0.747824
-0.773382
-0.792258
-0.803326
-0.8089
1.42442
1.40041
1.23925
1.01503
0.765649
0.510261
0.283897
0.05519
-0.125794
-0.258866
-0.383118
-0.443081
-0.561981
-0.611636
-0.657968
-0.687467
-0.709502
-0.722511
-0.729096
1.17286
1.14374
1.04641
0.884252
0.687639
0.490032
0.288691
0.118454
-0.0531832
-0.186626
-0.302415
-0.394352
-0.469474
-0.523623
-0.570204
-0.602281
-0.626323
-0.640955
-0.648353
0.929153
0.945308
0.864049
0.76551
0.612944
0.447306
0.286033
0.133296
-0.00940934
-0.127595
-0.233874
-0.31416
-0.393345
-0.449043
-0.496524
-0.529848
-0.554919
-0.570348
-0.578148
0.78245
0.798775
0.723214
0.652024
0.538838
0.407127
0.270341
0.14326
0.019252
-0.0877184
-0.183777
-0.262559
-0.33177
-0.385789
-0.430611
-0.463699
-0.488464
-0.504058
-0.511912
0.65267
0.677382
0.628675
0.552706
0.46551
0.364212
0.250731
0.140612
0.035063
-0.058624
-0.144575
-0.21624
-0.280481
-0.331461
-0.37424
-0.406418
-0.430601
-0.44599
-0.453737
0.555916
0.576903
0.549969
0.487862
0.404637
0.314721
0.228456
0.135812
0.042146
-0.0396728
-0.115467
-0.180673
-0.238722
-0.285961
-0.325397
-0.356046
-0.378994
-0.39379
-0.401225
0.475156
0.496865
0.479073
0.431078
0.362399
0.285561
0.191496
0.125584
0.0449361
-0.0268335
-0.09478
-0.15203
-0.204546
-0.247579
-0.283847
-0.312647
-0.334249
-0.348188
-0.355214
0.409029
0.428705
0.4194
0.380787
0.326155
0.259909
0.189405
0.114357
0.0319749
-0.0185004
-0.0782097
-0.129158
-0.177597
-0.215517
-0.247641
-0.275346
-0.295564
-0.308622
-0.315225
0.355217
0.376399
0.366538
0.335837
0.289857
0.232754
0.173403
0.110507
0.0452491
-0.018776
-0.0729603
-0.110788
-0.155483
-0.188798
-0.218141
-0.243416
-0.262314
-0.273664
-0.279641
0.310904
0.32756
0.324703
0.298756
0.263892
0.211994
0.157379
0.103952
0.0485216
-0.00437828
-0.0542121
-0.0959651
-0.145346
-0.165909
-0.187015
-0.217211
-0.235418
-0.245767
-0.251466
0.278307
0.296994
0.282423
0.264758
0.230446
0.191221
0.145566
0.0920152
0.0457399
0.000615502
-0.0446728
-0.083515
-0.120749
-0.147543
-0.173801
-0.1939
-0.21169
-0.216973
-0.221509
0.233631
0.239737
0.257889
0.241456
0.220267
0.171274
0.13306
0.0886103
0.0471408
0.007314
-0.0342477
-0.0712475
-0.106389
-0.130896
-0.156493
-0.170449
-0.188562
-0.194711
-0.198765
0.244196
0.27704
0.21393
0.205157
0.171236
0.155876
0.122629
0.0759822
0.0443713
0.000631615
-0.0301669
-0.0603404
-0.0926118
-0.116078
-0.136179
-0.153611
-0.163617
-0.171524
-0.175239
0.107742
0.116503
0.223593
0.212296
0.212729
0.133132
0.10012
0.0801311
0.0507341
0.0122273
-0.0182129
-0.0520812
-0.0809664
-0.100642
-0.116138
-0.134668
-0.149045
-0.156422
-0.160607
0.122306
0.127645
0.0971289
0.0977567
0.0828805
0.135825
0.113185
0.0539458
0.0433091
-0.00543688
-0.0149505
-0.0520106
-0.0701412
-0.0894264
-0.105828
-0.117774
-0.126319
-0.131815
-0.134126
0.0903119
0.0986696
0.114652
0.113453
0.0999438
0.0606945
0.0378136
0.0788938
0.0491368
0.0373532
-0.00666748
-0.0419223
-0.0581014
-0.0798765
-0.0933962
-0.103244
-0.120784
-0.129978
-0.132248
0.0773904
0.0825959
0.0800967
0.0789959
0.0690942
0.0631124
0.0463643
-0.00117899
-0.0125657
-0.0339507
-0.00421468
-0.0359294
-0.0509806
-0.0761946
-0.0883442
-0.0894811
-0.091853
-0.0955962
-0.0967814
0.0629128
0.0678457
0.0726783
0.0695835
0.0625153
0.050579
0.0369608
0.0310079
0.0142303
-0.00304717
-0.0485953
-0.055113
-0.0413222
-0.0574002
-0.0682389
-0.0876704
-0.106727
-0.111291
-0.11641
0.0523138
0.0554229
0.0573414
0.0548364
0.0484388
0.0394218
0.0274976
0.00949024
-0.00230862
-0.0195995
-0.024611
-0.0560569
-0.0724862
-0.0908491
-0.086073
-0.0637627
-0.0581483
-0.0610261
-0.0608292
0.0437203
0.0453849
0.0489295
0.0459798
0.0414696
0.034123
0.0246806
0.014641
0.00196805
-0.0104055
-0.0274102
-0.0386721
-0.0458824
-0.058942
-0.0866785
-0.107937
-0.123001
-0.131636
-0.135929
0.0357231
0.0369471
0.0383713
0.0357362
0.0313819
0.0248888
0.0163462
0.00662609
-0.00355728
-0.0151221
-0.025447
-0.0391765
-0.0485181
-0.0577722
-0.0608857
-0.0603213
-0.0557769
-0.0573014
-0.0570782
0.0306958
0.0318191
0.0335429
0.0311694
0.0279216
0.0226042
0.0158559
0.00840562
-0.000579941
-0.00952771
-0.0199231
-0.0289505
-0.0379788
-0.047207
-0.0579383
-0.0676397
-0.0735239
-0.078612
-0.0804829
0.0211896
0.0236276
0.0240016
0.0218416
0.0186718
0.0139191
0.00803108
0.00137785
-0.00601889
-0.0135968
-0.021591
-0.0295624
-0.036498
-0.0425192
-0.0470825
-0.0505124
-0.0516104
-0.0535802
-0.0540097
0.0207215
0.0235196
0.0235437
0.0219153
0.0193941
0.0154574
0.0108345
0.00551774
-0.0005083
-0.0065731
-0.0129304
-0.0192309
-0.0251581
-0.0314475
-0.0365477
-0.0417424
-0.044741
-0.0475895
-0.0485739
0.0167976
0.0124886
0.0140327
0.0103264
0.00850384
0.0045975
0.000610894
-0.00417612
-0.00926316
-0.0144438
-0.0196483
-0.0249296
-0.0297668
-0.0345707
-0.0380195
-0.0411405
-0.0428618
-0.0445267
-0.0450629
0.0186954
0.0153204
0.0177916
0.0155743
0.0152828
0.0126493
0.0103588
0.00728992
0.00403815
0.000587673
-0.00298025
-0.00665532
-0.0101973
-0.0137226
-0.0164733
-0.0191709
-0.0208279
-0.0223009
-0.0228443
0.00826715
0.00244825
0.0032603
-0.00102654
-0.00305418
-0.00695837
-0.0100579
-0.0136212
-0.0170867
-0.0205617
-0.0239594
-0.0272469
-0.0302516
-0.0330924
-0.0353251
-0.0373191
-0.0385762
-0.0396313
-0.0400083
0.0128672
0.0106123
0.0142507
0.0137566
0.0150622
0.0147519
0.0147206
0.0141197
0.0134124
0.0125057
0.0114964
0.0104078
0.00934504
0.00824763
0.00736632
0.00651235
0.00597357
0.00549867
0.00530413
-0.00513288
-0.0081044
-0.0118522
-0.0153581
-0.018872
-0.0221571
-0.0252244
-0.0280619
-0.0306297
-0.0329549
-0.035041
-0.0368936
-0.0385081
-0.0399
-0.0410361
-0.0419507
-0.0425861
-0.0430325
-0.0430489
)
;

boundaryField
{
    leftWall
    {
        type            zeroGradient;
    }
    rightWall
    {
        type            zeroGradient;
    }
    lowerWall
    {
        type            zeroGradient;
    }
    atmosphere
    {
        type            totalPressure;
        rho             rho;
        psi             none;
        gamma           1;
        p0              uniform 0;
        value           nonuniform List<scalar> 
46
(
-0.0170447
-0.0171178
-0.0167054
-0.0161126
-0.015343
-0.0144368
-0.0134013
-0.0123172
-0.011132
-0.0100692
-0.00886417
-0.0081925
-0.00715047
-0.00798988
-0.00771421
-0.00699238
-0.00511487
-0.00357835
-0.00208545
-0.00101216
-0.000309898
-3.29305e-05
-9.75003e-06
0
0
0
0
0
0
0
0
0
0
0
0
0
0
0
0
0
0
0
0
0
0
0
)
;
    }
    defaultFaces
    {
        type            empty;
    }
}


// ************************************************************************* //
