/*--------------------------------*- C++ -*----------------------------------*\
| =========                 |                                                 |
| \\      /  F ield         | foam-extend: Open Source CFD                    |
|  \\    /   O peration     | Version:     4.1                                |
|   \\  /    A nd           | Web:         http://www.foam-extend.org         |
|    \\/     M anipulation  |                                                 |
\*---------------------------------------------------------------------------*/
FoamFile
{
    version     2.0;
    format      ascii;
    class       surfaceScalarField;
    location    "0.1";
    object      phi;
}
// * * * * * * * * * * * * * * * * * * * * * * * * * * * * * * * * * * * * * //

dimensions      [0 3 -1 0 0 0 0];

internalField   nonuniform List<scalar> 
4432
(
5.60749e-06
-5.60749e-06
1.10967e-05
-5.48919e-06
1.70512e-05
-5.95447e-06
2.22687e-05
-5.21757e-06
2.89184e-05
-6.6497e-06
3.41057e-05
-5.18725e-06
4.00892e-05
-5.98351e-06
4.62804e-05
-6.19118e-06
5.1057e-05
-4.77658e-06
4.89887e-05
2.06821e-06
8.58856e-05
-3.68968e-05
9.80059e-05
-1.21204e-05
0.000107705
-9.69868e-06
0.000119491
-1.17865e-05
0.000140003
-2.05117e-05
0.000158761
-1.87583e-05
0.000190106
-3.1345e-05
0.000210652
-2.05461e-05
0.000229013
-1.8361e-05
0.000241684
-1.26709e-05
0.000235893
5.79073e-06
0.000142946
9.29475e-05
0.000142946
5.61494e-06
-1.12224e-05
1.11235e-05
-1.09977e-05
1.70788e-05
-1.19098e-05
2.23207e-05
-1.04595e-05
2.89583e-05
-1.32873e-05
3.43207e-05
-1.05497e-05
3.98694e-05
-1.15321e-05
4.74728e-05
-1.37946e-05
5.15466e-05
-8.85045e-06
8.62769e-05
-3.26621e-05
8.8537e-05
-3.91569e-05
9.95522e-05
-2.31356e-05
0.000108415
-1.85618e-05
0.000123108
-2.64792e-05
0.000141144
-3.85473e-05
0.000151161
-2.87759e-05
9.80497e-05
2.17665e-05
7.04101e-05
7.09353e-06
3.91941e-05
1.2855e-05
2.15565e-05
4.96669e-06
1.85873e-05
8.75996e-06
6.78043e-05
4.37305e-05
0.00021075
5.60078e-06
-1.68232e-05
1.11174e-05
-1.65144e-05
1.70512e-05
-1.78436e-05
2.22545e-05
-1.56627e-05
2.91026e-05
-2.01353e-05
3.39783e-05
-1.54255e-05
4.04623e-05
-1.80161e-05
4.81642e-05
-2.14964e-05
4.99968e-05
-1.06831e-05
8.16671e-05
-6.43323e-05
8.74239e-05
-4.49138e-05
9.79721e-05
-3.36837e-05
0.000107662
-2.8252e-05
0.000125537
-4.43534e-05
0.000144667
-5.76777e-05
0.0001637
-4.7809e-05
0.000183752
1.71408e-06
0.00019915
-8.30436e-06
0.000213439
-1.43398e-06
0.000231483
-1.30766e-05
0.000214054
2.61884e-05
0.000114055
0.00014373
0.000324805
5.5851e-06
-2.24083e-05
1.11205e-05
-2.20498e-05
1.7021e-05
-2.3744e-05
2.22404e-05
-2.08822e-05
2.91464e-05
-2.70413e-05
3.39202e-05
-2.01993e-05
4.21879e-05
-2.62839e-05
4.63426e-05
-2.56511e-05
7.98684e-05
-4.42089e-05
7.93963e-05
-6.38601e-05
8.6574e-05
-5.20915e-05
9.83041e-05
-4.54138e-05
0.000110443
-4.03911e-05
0.000131825
-6.57349e-05
0.000149421
-7.52737e-05
0.000162835
-6.12235e-05
0.000173634
-9.08421e-06
0.000165626
-2.97086e-07
0.000148823
1.53691e-05
0.000121068
1.4679e-05
0.000102483
4.4773e-05
7.44184e-05
0.000171794
0.000399224
5.55302e-06
-2.79613e-05
1.1115e-05
-2.76119e-05
1.69332e-05
-2.95621e-05
2.22146e-05
-2.61636e-05
2.90599e-05
-3.38867e-05
3.42897e-05
-2.54291e-05
4.20295e-05
-3.40236e-05
4.49229e-05
-2.85445e-05
7.51707e-05
-7.44568e-05
7.84098e-05
-6.70992e-05
8.49671e-05
-5.86488e-05
9.77964e-05
-5.82432e-05
0.000112566
-5.51606e-05
0.000132885
-8.60545e-05
0.000150017
-9.24053e-05
0.000160025
-7.12315e-05
0.000172758
-2.18172e-05
0.000177976
-5.51461e-06
0.000187325
6.02032e-06
0.000197644
4.3598e-06
0.000169598
7.28185e-05
6.37942e-05
0.000277598
0.000463018
5.53281e-06
-3.34941e-05
1.11273e-05
-3.32063e-05
1.69109e-05
-3.53458e-05
2.22715e-05
-3.15242e-05
2.89839e-05
-4.0599e-05
3.60057e-05
-3.2451e-05
4.00988e-05
-3.81167e-05
6.83811e-05
-5.68268e-05
6.91605e-05
-7.52361e-05
7.78118e-05
-7.57505e-05
8.76193e-05
-6.84563e-05
0.000100685
-7.1309e-05
0.000116295
-7.07704e-05
0.000135682
-0.000105442
0.000149327
-0.00010605
0.000155765
-7.76693e-05
0.000154181
-2.02336e-05
0.000149236
-5.69451e-07
0.000132156
2.31005e-05
8.87202e-05
4.77955e-05
8.43375e-05
7.72011e-05
4.0281e-05
0.000321655
0.000503299
5.46604e-06
-3.89602e-05
1.1134e-05
-3.88742e-05
1.69446e-05
-4.11564e-05
2.23611e-05
-3.69408e-05
2.96394e-05
-4.78772e-05
3.42039e-05
-3.70156e-05
3.74553e-05
-4.1368e-05
6.48558e-05
-8.42273e-05
6.90878e-05
-7.94682e-05
7.7955e-05
-8.46176e-05
8.8469e-05
-7.89703e-05
0.000102514
-8.53545e-05
0.000116461
-8.47175e-05
0.000131084
-0.000120064
0.000140323
-0.000115289
0.000144637
-8.19837e-05
0.000155918
-3.15142e-05
0.000178679
-2.33303e-05
0.000209299
-7.51981e-06
0.000232981
2.41133e-05
0.000108337
0.000201845
7.95801e-05
0.000350412
0.000582879
5.45712e-06
-4.44173e-05
1.12357e-05
-4.46528e-05
1.71933e-05
-4.7114e-05
2.25194e-05
-4.2267e-05
3.00585e-05
-5.54163e-05
3.21098e-05
-3.90669e-05
5.92466e-05
-6.85048e-05
6.24362e-05
-8.74169e-05
6.94303e-05
-8.64623e-05
7.95747e-05
-9.4762e-05
9.16421e-05
-9.10377e-05
0.000103298
-9.70108e-05
0.000110145
-9.1564e-05
0.000120063
-0.000129982
0.000130455
-0.000125682
0.000137581
-8.91097e-05
0.000147255
-4.11878e-05
0.000147687
-2.37625e-05
0.000143011
-2.84389e-06
0.000112768
5.43569e-05
0.000137316
0.000177297
0.000105841
0.000381887
0.00068872
-1.60356e-05
1.60356e-05
-2.93954e-05
1.33598e-05
-3.55827e-05
6.1872e-06
-3.49641e-05
-6.18592e-07
-3.07337e-05
-4.23041e-06
-2.72581e-05
-3.4756e-06
-2.32737e-05
-3.98427e-06
-1.92526e-05
-4.02121e-06
-1.53973e-05
-3.85535e-06
-1.22506e-05
-3.14674e-06
-8.42872e-06
-3.82189e-06
-7.42101e-06
-1.00768e-06
-5.18326e-06
-2.23767e-06
-3.09917e-06
-2.08423e-06
-2.02904e-06
-1.07002e-06
-1.28689e-06
-7.42193e-07
-7.47649e-07
-5.39343e-07
-3.32767e-07
-4.14789e-07
-3.32685e-07
-1.64786e-05
3.25141e-05
-3.20542e-05
2.89354e-05
-3.7454e-05
1.15869e-05
-3.54589e-05
-2.61367e-06
-3.06698e-05
-9.01937e-06
-2.71036e-05
-7.04198e-06
-2.33124e-05
-7.77549e-06
-1.94902e-05
-7.84348e-06
-1.52963e-05
-8.04927e-06
-1.18099e-05
-6.63301e-06
-8.44694e-06
-7.18494e-06
-5.63183e-06
-3.82297e-06
-3.71346e-06
-4.15565e-06
-2.69878e-06
-3.09902e-06
-1.66577e-06
-2.10312e-06
-1.02777e-06
-1.38013e-06
-5.97398e-07
-9.69685e-07
-2.84368e-07
-7.27795e-07
-6.16999e-07
-2.06025e-05
5.31165e-05
-3.55321e-05
4.3865e-05
-3.96248e-05
1.56795e-05
-3.70839e-05
-5.15457e-06
-3.11882e-05
-1.49149e-05
-2.67658e-05
-1.14646e-05
-2.21157e-05
-1.24254e-05
-1.86177e-05
-1.13415e-05
-1.53796e-05
-1.12876e-05
-1.10819e-05
-1.09307e-05
-8.14015e-06
-1.01265e-05
-6.34613e-06
-5.61707e-06
-3.42289e-06
-7.07871e-06
-2.31837e-06
-4.20367e-06
-1.50983e-06
-2.91169e-06
-9.32256e-07
-1.95757e-06
-5.77236e-07
-1.32468e-06
-2.57487e-07
-1.04756e-06
-8.74441e-07
-2.49254e-05
7.80418e-05
-4.31239e-05
6.20634e-05
-4.47708e-05
1.73265e-05
-3.94641e-05
-1.04614e-05
-3.18877e-05
-2.24911e-05
-2.67455e-05
-1.66068e-05
-2.21484e-05
-1.70226e-05
-1.73528e-05
-1.6137e-05
-1.23945e-05
-1.6246e-05
-1.07452e-05
-1.258e-05
-7.47833e-06
-1.33932e-05
-5.03869e-06
-8.05689e-06
-3.08846e-06
-9.0288e-06
-2.17542e-06
-5.11675e-06
-1.36425e-06
-3.7229e-06
-8.73906e-07
-2.44784e-06
-5.10346e-07
-1.68821e-06
-2.32308e-07
-1.32562e-06
-1.10671e-06
-3.55683e-05
0.00011361
-5.13675e-05
7.78626e-05
-5.00707e-05
1.60297e-05
-4.26569e-05
-1.78752e-05
-3.33084e-05
-3.18396e-05
-2.77222e-05
-2.2193e-05
-2.2246e-05
-2.24987e-05
-1.73955e-05
-2.09876e-05
-1.40191e-05
-1.96224e-05
-1.05597e-05
-1.60393e-05
-5.24382e-06
-1.8709e-05
-4.51163e-06
-8.7893e-06
-3.07907e-06
-1.04613e-05
-2.09966e-06
-6.09616e-06
-1.22558e-06
-4.59703e-06
-8.08925e-07
-2.86445e-06
-4.47067e-07
-2.05003e-06
-2.07888e-07
-1.56481e-06
-1.31456e-06
-5.03251e-05
0.000163935
-6.36502e-05
9.11875e-05
-5.83029e-05
1.06824e-05
-4.6698e-05
-2.948e-05
-3.43675e-05
-4.41701e-05
-2.79282e-05
-2.86324e-05
-2.12669e-05
-2.91599e-05
-1.70116e-05
-2.52429e-05
-1.33172e-05
-2.33168e-05
-6.48802e-06
-2.28684e-05
-5.13631e-06
-2.00606e-05
-3.9073e-06
-1.00185e-05
-2.44984e-06
-1.19186e-05
-1.71663e-06
-6.82932e-06
-1.05792e-06
-5.25578e-06
-6.54239e-07
-3.26811e-06
-3.44179e-07
-2.36005e-06
-1.85815e-07
-1.72316e-06
-1.50034e-06
-6.81182e-05
0.000232053
-7.82784e-05
0.000101348
-6.61868e-05
-1.40916e-06
-2.9468e-05
-6.61989e-05
-3.80463e-05
-3.55919e-05
-2.82549e-05
-3.84238e-05
-2.04453e-05
-3.69696e-05
-1.63272e-05
-2.9361e-05
-6.74592e-06
-3.2898e-05
-6.38561e-06
-2.32288e-05
-5.02341e-06
-2.14227e-05
-2.84841e-06
-1.21935e-05
-2.11316e-06
-1.26538e-05
-1.32534e-06
-7.61709e-06
-8.70313e-07
-5.71082e-06
-4.82815e-07
-3.65559e-06
-2.78715e-07
-2.5641e-06
-1.38873e-07
-1.86298e-06
-1.63918e-06
-0.000101012
0.000333065
-5.78361e-05
5.81723e-05
-4.44457e-05
-1.47996e-05
-3.09942e-05
-7.96503e-05
-2.19997e-05
-4.45863e-05
-1.64535e-05
-4.397e-05
-1.35107e-05
-3.99125e-05
-9.15576e-06
-3.37159e-05
-7.68471e-06
-3.43691e-05
-7.09315e-06
-2.38205e-05
-3.95626e-06
-2.45596e-05
-2.25936e-06
-1.38905e-05
-1.39792e-06
-1.35153e-05
-9.62278e-07
-8.0527e-06
-5.86077e-07
-6.08703e-06
-3.61851e-07
-3.87979e-06
-1.65073e-07
-2.76083e-06
-7.35536e-08
-1.95447e-06
-1.71272e-06
1.13053e-05
-5.57226e-05
2.35502e-05
-5.68977e-05
3.42519e-05
-5.78157e-05
4.86966e-05
-5.67116e-05
5.89031e-05
-6.56227e-05
0.000103182
-8.33454e-05
0.000121647
-8.69703e-05
0.000133122
-9.88914e-05
0.000149216
-0.000102557
0.000167131
-0.000112677
0.000193709
-0.000117615
0.000220341
-0.000123644
0.000210865
-8.2088e-05
0.000240111
-0.000159229
0.000254846
-0.000140416
0.000269241
-0.000103506
0.000315679
-8.76256e-05
0.000363539
-7.16224e-05
0.000373175
-1.24792e-05
0.000291551
0.000135981
0.000225543
0.000243305
0.000347957
0.000259472
0.00114184
-0.000105164
1.12259e-05
-6.69485e-05
2.5399e-05
-7.10707e-05
3.64563e-05
-6.8873e-05
6.75733e-05
-8.78286e-05
8.38328e-05
-8.18823e-05
9.95322e-05
-9.90447e-05
0.000113548
-0.000100986
0.000125512
-0.000110855
0.000141114
-0.000118159
0.000157655
-0.000129219
0.000173035
-0.000132995
0.000200769
-0.000151378
0.000217701
-9.90193e-05
0.000240622
-0.00018215
0.000247472
-0.000147265
0.000234092
-9.01254e-05
0.000257105
-0.000110639
0.00024016
-5.46778e-05
0.000252162
-2.44815e-05
0.000285928
0.000102215
0.000251553
0.00027768
0.000338984
0.00017204
0.00135169
0.000129137
1.67505e-05
-8.36991e-05
3.31528e-05
-8.74731e-05
5.14003e-05
-8.71205e-05
6.41728e-05
-0.000100601
8.10351e-05
-9.87447e-05
9.22378e-05
-0.000110247
0.000106007
-0.000114755
0.000120292
-0.00012514
0.000134302
-0.000132169
0.000148908
-0.000143824
0.000164145
-0.000148233
0.000187518
-0.000174751
0.000194504
-0.000106006
0.000196335
-0.000183981
0.000195503
-0.000146433
0.000237017
-0.000131639
0.000268646
-0.000142268
0.000314936
-0.000100968
0.000305825
-1.53702e-05
0.000273866
0.000134174
0.000204395
0.000347151
0.000204257
0.000172178
0.00136423
0.000191715
1.61771e-05
-9.98761e-05
3.15411e-05
-0.000102837
4.79605e-05
-0.00010354
5.8893e-05
-0.000111534
7.28442e-05
-0.000112696
8.61018e-05
-0.000123505
9.85105e-05
-0.000127164
0.00011081
-0.00013744
0.000123286
-0.000144645
0.000135362
-0.000155901
0.000148828
-0.000161698
0.000171067
-0.00019699
0.000179037
-0.000113976
0.000179483
-0.000184426
0.000190662
-0.000157613
0.00020477
-0.000145747
0.000192912
-0.00013041
0.000180292
-8.83481e-05
0.000133564
3.1358e-05
0.000145362
0.000122376
0.000216875
0.000275638
0.000260133
0.00012892
0.0012111
0.00041326
1.39334e-05
-0.00011381
2.73358e-05
-0.00011624
4.10442e-05
-0.000117248
5.38354e-05
-0.000124325
6.76272e-05
-0.000126488
7.87912e-05
-0.000134669
9.04705e-05
-0.000138843
0.000102452
-0.000149421
0.000113575
-0.000155768
0.00012341
-0.000165736
0.000135376
-0.000173664
0.000153711
-0.000215325
0.000156697
-0.000116962
0.000150588
-0.000178317
0.000155074
-0.0001621
0.000166514
-0.000157186
0.000137064
-0.00010096
0.00013367
-8.49534e-05
5.433e-05
0.000110697
6.75512e-05
0.000109155
0.000128298
0.000214891
0.000142347
0.000114871
0.000731505
0.000621945
1.28868e-05
-0.000126696
2.52235e-05
-0.000128576
3.82515e-05
-0.000130276
4.91559e-05
-0.000135229
6.07815e-05
-0.000138113
7.21372e-05
-0.000146025
8.26986e-05
-0.000149404
9.34299e-05
-0.000160152
0.000101957
-0.000164294
0.000108486
-0.000172265
0.000118668
-0.000183846
0.000131933
-0.00022859
0.000132564
-0.000117592
0.000126958
-0.000172711
0.000133726
-0.000168868
0.000137881
-0.000161341
0.000134115
-9.71941e-05
4.00065e-05
9.15517e-06
2.19493e-05
0.000128754
5.32964e-05
7.78076e-05
0.000159539
0.000108649
0.000194343
8.00671e-05
0.000350278
0.00057557
1.12742e-05
-0.00013797
2.23527e-05
-0.000139655
3.35801e-05
-0.000141504
4.44272e-05
-0.000146076
5.57152e-05
-0.000149401
6.57658e-05
-0.000156075
7.62343e-05
-0.000159873
8.55338e-05
-0.000169452
8.96341e-05
-0.000168395
9.23095e-05
-0.000174941
9.86915e-05
-0.000190228
0.000108538
-0.000238436
0.000107152
-0.000116207
0.000101362
-0.000166921
9.41315e-05
-0.000161638
9.81774e-05
-0.000165387
1.2833e-06
-3.00146e-07
-3.66709e-05
4.71095e-05
2.66938e-05
6.53898e-05
4.96164e-05
5.48849e-05
0.000117031
4.12342e-05
0.000205665
-8.56698e-06
0.000155945
0.000399998
1.01715e-05
-0.000148142
2.01195e-05
-0.000149603
3.04118e-05
-0.000151796
4.00129e-05
-0.000155677
5.0158e-05
-0.000159546
6.00068e-05
-0.000165924
7.12585e-05
-0.000171124
7.62244e-05
-0.000174418
7.39467e-05
-0.000166117
7.44433e-05
-0.000175437
7.72645e-05
-0.00019305
8.57596e-05
-0.000246931
8.23742e-05
-0.000112821
7.78996e-05
-0.000162446
0.000127674
-0.000211412
7.56605e-05
-0.000113373
-5.47988e-06
8.08403e-05
-1.06321e-05
5.22615e-05
2.05286e-07
5.45526e-05
1.62066e-05
3.88838e-05
3.51205e-05
2.23202e-05
3.12353e-05
-4.68172e-06
3.2794e-05
0.000154386
8.85973e-06
-0.000157002
1.76463e-05
-0.000158389
2.67407e-05
-0.00016089
3.55851e-05
-0.000164522
4.54461e-05
-0.000169407
5.4019e-05
-0.000174497
6.37563e-05
-0.000180862
6.56011e-05
-0.000176263
6.38548e-05
-0.000164371
6.47934e-05
-0.000176376
6.56787e-05
-0.000193935
6.5064e-05
-0.000246316
6.11493e-05
-0.000108907
5.93987e-05
-0.000160696
6.23819e-05
-0.000214396
-4.64285e-05
-4.56257e-06
-2.28832e-05
5.7295e-05
-2.44021e-05
5.37802e-05
-2.40973e-05
5.42478e-05
-2.50904e-05
3.98769e-05
-3.82947e-05
3.55244e-05
-5.61161e-05
1.31398e-05
6.66368e-05
-8.99588e-05
7.53021e-06
-0.000164532
1.49752e-05
-0.000165834
2.27215e-05
-0.000168637
3.01781e-05
-0.000171978
3.90606e-05
-0.00017829
4.67431e-05
-0.00018218
5.51821e-05
-0.000189301
5.65537e-05
-0.000177634
5.43969e-05
-0.000162214
5.3517e-05
-0.000175496
4.81073e-05
-0.000188525
4.13247e-05
-0.000239534
3.76855e-05
-0.000105267
1.2434e-05
-0.000135444
1.77933e-06
-0.000203741
-2.35365e-05
2.07536e-05
-2.23139e-05
5.60724e-05
-2.0134e-05
5.16001e-05
-2.7171e-05
6.12849e-05
-5.28305e-05
6.55363e-05
-7.9392e-05
6.2086e-05
-0.000157816
9.15636e-05
0.000139007
-0.000230186
6.33162e-06
-0.000170864
1.27457e-05
-0.000172248
1.94473e-05
-0.000175338
2.67565e-05
-0.000179288
3.55136e-05
-0.000187047
4.60211e-05
-0.000192687
6.18146e-05
-0.000205094
8.84133e-05
-0.000204233
6.53195e-05
-0.00013912
2.9985e-05
-0.000140162
-5.13042e-06
-0.00015341
3.7515e-06
-0.000248416
7.78659e-06
-0.000109302
3.28778e-06
-0.000130945
2.25424e-05
-0.000222996
7.13561e-06
3.61603e-05
-4.05088e-06
6.72589e-05
-1.56432e-05
6.31926e-05
-3.5401e-05
8.10426e-05
-5.66819e-05
8.68173e-05
-8.61408e-05
9.15449e-05
-0.0001481
0.000153523
0.000179767
-0.000188861
4.59114e-06
-0.000175455
9.17912e-06
-0.000176836
1.34118e-05
-0.000179571
1.77714e-05
-0.000183647
2.08865e-05
-0.000190162
2.57737e-05
-0.000197574
2.99177e-05
-0.000209238
3.89748e-05
-0.00021329
3.49951e-05
-0.00013514
2.7888e-05
-0.000133054
2.12485e-05
-0.00014677
2.0492e-05
-0.000247659
1.26591e-05
-0.000101469
3.19603e-05
-0.000150247
5.38033e-05
-0.000244839
4.61046e-05
4.38594e-05
1.23151e-05
0.000101048
-1.80847e-05
9.35924e-05
-3.80317e-05
0.00010099
-5.48659e-05
0.000103651
-7.72187e-05
0.000113898
-0.000106513
0.000182818
0.000191307
-0.000118053
3.28402e-06
-0.000178739
6.51197e-06
-0.000180064
9.37513e-06
-0.000182434
1.20965e-05
-0.000186369
1.44234e-05
-0.000192489
1.76396e-05
-0.00020079
1.91629e-05
-0.000210762
2.50767e-05
-0.000219204
2.42119e-05
-0.000134276
2.1384e-05
-0.000130226
9.32199e-06
-0.000134708
9.83662e-06
-0.000248174
1.47613e-06
-9.31089e-05
3.58246e-05
-0.000184595
7.68587e-06
-0.000216701
7.56422e-05
-2.4097e-05
3.50269e-05
0.000141664
-3.797e-06
0.000132416
-1.62572e-05
0.00011345
-2.39087e-05
0.000111303
-9.07189e-05
0.000180708
-7.48462e-05
0.000166945
0.000198794
-8.23337e-05
1.39722e-06
-0.000180136
2.70647e-06
-0.000181374
3.88618e-06
-0.000183614
4.80091e-06
-0.000187283
5.48775e-06
-0.000193176
5.62797e-06
-0.000200931
7.01626e-06
-0.00021215
1.45359e-05
-0.000226723
1.14508e-05
-0.000131191
1.95027e-05
-0.000138278
2.34708e-05
-0.000138676
-5.32564e-05
-0.000171447
-2.33021e-05
-0.000123063
3.59452e-05
-0.000243842
5.40049e-05
-0.00023476
3.19189e-05
-2.011e-06
1.87605e-06
0.000171706
-3.00371e-05
0.000164329
-5.41795e-05
0.000137592
-6.86691e-05
0.000125792
-8.03473e-05
0.000192386
-8.80749e-05
0.000174673
0.000188493
-7.77736e-05
1.23134e-06
-0.000181367
2.2493e-06
-0.000182391
3.39844e-06
-0.000184763
4.08401e-06
-0.000187969
4.00064e-06
-0.000193092
8.24266e-07
-0.000197754
-5.71821e-06
-0.000205607
-1.81346e-05
-0.000214307
2.97102e-05
-0.000179035
1.79231e-05
-0.000126491
1.76587e-05
-0.000138412
5.71265e-06
-0.000159501
1.71665e-05
-0.000134517
1.01737e-05
-0.000236849
-7.34563e-05
-0.00015113
-0.000113311
3.78434e-05
-7.44265e-05
0.000132822
-7.27809e-05
0.000162684
-4.99567e-05
0.000114768
-0.000101471
0.000177307
-6.82848e-05
0.0001592
-5.91445e-05
0.000165532
0.000177501
-4.81523e-05
1.42993e-06
-0.000182797
1.93182e-06
-0.000182893
2.8187e-06
-0.00018565
3.10145e-06
-0.000188252
3.02779e-06
-0.000193019
4.45333e-07
-0.000195172
-4.23941e-06
-0.000200923
-1.98498e-05
-0.000198697
-2.37368e-05
-0.000175148
1.93656e-05
-0.000169594
1.18578e-05
-0.000130904
-2.06682e-06
-0.000145576
-1.8879e-05
-0.000117705
-4.90471e-05
-0.000206681
-0.000101746
-9.84312e-05
-0.000159307
9.54046e-05
-0.000132059
0.000105574
-8.10479e-05
0.000111673
-0.00013631
0.00017003
-0.000114338
0.000155335
-0.000108346
0.000153207
-9.71661e-05
0.000154352
0.000160007
-7.96721e-05
1.59609e-07
-0.000182957
9.56589e-07
-0.00018369
-1.60661e-07
-0.000184533
-2.17265e-08
-0.000188391
2.4141e-07
-0.000193282
-1.1327e-06
-0.000193798
-4.29348e-06
-0.000197762
-1.04965e-05
-0.000192493
-1.09183e-05
-0.000174727
-3.05227e-05
-0.000149989
-7.52958e-06
-0.000153897
-3.39465e-05
-0.000119159
-2.31513e-05
-0.0001285
-0.000110966
-0.000118867
-0.000141736
-6.76614e-05
-0.000141401
9.50702e-05
-0.000181337
0.00014551
-0.000177575
0.000107911
-0.000147313
0.000139768
-0.000128813
0.000136834
-0.00011602
0.000140415
-9.20402e-05
0.000130373
0.000142471
-7.45043e-05
-1.2599e-06
-0.000181697
-2.23252e-06
-0.000182718
-3.35794e-06
-0.000183407
-3.29049e-06
-0.000188458
-1.96699e-06
-0.000194605
-2.49795e-07
-0.000195515
7.53382e-07
-0.000198765
4.38612e-07
-0.000192179
-5.03092e-06
-0.000169257
-1.83504e-05
-0.00013667
-2.72158e-05
-0.000145032
-2.1606e-05
-0.000124769
-3.94961e-05
-0.00011061
-8.47924e-05
-7.35704e-05
-0.000180537
2.8083e-05
-0.000197599
0.000112132
-0.000184427
0.000132338
-0.000165191
8.86755e-05
-0.000144507
0.000119084
-0.000122743
0.00011507
-0.000110885
0.000128557
-9.18887e-05
0.000111377
0.00010598
-5.53981e-05
-2.22241e-06
-0.000179474
-4.55448e-06
-0.000180386
-5.00033e-06
-0.000182961
-6.88653e-06
-0.000186572
-9.23233e-06
-0.000192259
-8.95274e-06
-0.000195794
-7.36649e-06
-0.000200351
-3.51615e-06
-0.000196029
-6.56609e-06
-0.000166207
-2.31721e-05
-0.000120064
-8.1631e-06
-0.000160041
-5.2091e-05
-8.08411e-05
-8.93868e-05
-7.33141e-05
-0.000116947
-4.60102e-05
-0.000133175
4.43113e-05
-0.00013066
0.000109617
-0.000117155
0.000118833
-0.000143878
0.000115398
-0.000128507
0.000103713
-0.000115419
0.000101983
-7.38185e-05
8.69556e-05
-6.17484e-05
9.93066e-05
9.3235e-05
-4.9003e-05
-7.62527e-06
-0.000171849
-1.4023e-05
-0.000173988
-2.08012e-05
-0.000176183
-2.60845e-05
-0.000181289
-3.57531e-05
-0.000182591
-4.67828e-05
-0.000184765
-6.39948e-05
-0.000183139
-7.9619e-05
-0.000180405
-7.7268e-05
-0.000168558
-6.1005e-05
-0.000136327
-0.000111013
-0.000110033
-0.000110995
-8.08591e-05
-0.000132797
-5.15115e-05
-0.000152536
-2.62717e-05
-0.000138382
3.01576e-05
-0.000128062
9.92966e-05
-0.00010925
0.000100022
-9.48979e-05
0.000101046
-8.0879e-05
8.96944e-05
-7.17673e-05
9.2871e-05
-6.5223e-05
8.04113e-05
-5.84407e-05
9.25242e-05
8.6347e-05
-5.15527e-05
-1.01053e-05
-0.000161744
-1.9935e-05
-0.000164158
-3.05114e-05
-0.000165606
-4.32251e-05
-0.000168575
-5.64031e-05
-0.000169413
-7.23798e-05
-0.000168788
-8.86203e-05
-0.000166899
-0.00010453
-0.000164495
-0.000111767
-0.00016132
-0.000127692
-0.000120402
-0.00012323
-0.000114495
-0.00014273
-6.13597e-05
-0.000149249
-4.49921e-05
-0.000194481
1.896e-05
-0.000203622
3.92988e-05
-0.000136745
3.24198e-05
-0.000116898
8.01748e-05
-9.33308e-05
7.74783e-05
-8.28284e-05
7.91919e-05
-7.25689e-05
8.26115e-05
-6.75034e-05
7.53457e-05
-5.80267e-05
8.30474e-05
7.76551e-05
-4.93347e-05
-1.01945e-05
-0.000151549
-2.03063e-05
-0.000154046
-3.13213e-05
-0.000154591
-4.4199e-05
-0.000155697
-5.70303e-05
-0.000156581
-7.09511e-05
-0.000154867
-8.53461e-05
-0.000152503
-0.000103028
-0.000146814
-0.000127763
-0.000136585
-0.000132822
-0.000115343
-0.0001766
-7.07171e-05
-0.00018601
-5.195e-05
-0.000196823
-3.41783e-05
-0.000174763
-3.09974e-06
-0.000115562
-1.99022e-05
-0.000127444
4.43012e-05
-0.000115885
6.8616e-05
-9.78791e-05
5.94722e-05
-8.50072e-05
6.63201e-05
-7.10206e-05
6.86248e-05
-6.54839e-05
6.98091e-05
-5.67539e-05
7.43174e-05
7.0623e-05
-4.97218e-05
-9.32405e-06
-0.000142225
-1.96396e-05
-0.000143731
-3.04932e-05
-0.000143738
-4.28012e-05
-0.000143389
-5.63006e-05
-0.000143082
-7.18894e-05
-0.000139278
-8.9116e-05
-0.000135277
-0.000110375
-0.000125555
-0.000133347
-0.000113612
-0.000127289
-0.000121401
-0.000162488
-3.55179e-05
-0.000174122
-4.03165e-05
-0.000173148
-3.51521e-05
-0.000157753
-1.84946e-05
-0.000168142
-9.51323e-06
-0.00012419
3.49031e-07
-0.00011671
6.11355e-05
-9.2897e-05
3.56597e-05
-8.45699e-05
5.7993e-05
-7.45584e-05
5.86134e-05
-6.62549e-05
6.15056e-05
-5.6398e-05
6.44605e-05
6.19511e-05
-4.77263e-05
-9.78232e-06
-0.000132443
-1.99441e-05
-0.000133569
-3.04248e-05
-0.000133257
-4.24351e-05
-0.000131379
-5.44041e-05
-0.000131113
-6.80302e-05
-0.000125652
-7.90343e-05
-0.000124273
-8.85769e-05
-0.000116012
-9.67909e-05
-0.000105398
-0.000158049
-6.0143e-05
-0.000150103
-4.34639e-05
-0.000152099
-3.83206e-05
-0.000164884
-2.23663e-05
-0.000161163
-2.22162e-05
-0.000158388
-1.22878e-05
-0.000154144
-3.89478e-06
-0.00010942
1.64116e-05
-0.00010474
3.09796e-05
-8.27545e-05
3.60072e-05
-6.57046e-05
4.15635e-05
-6.21564e-05
5.79574e-05
-5.64737e-05
5.87778e-05
5.54171e-05
-4.99398e-05
-9.58823e-06
-0.000122855
-1.94959e-05
-0.000123661
-2.96462e-05
-0.000123107
-4.1393e-05
-0.000119632
-5.27752e-05
-0.000119731
-6.7148e-05
-0.000111279
-7.94524e-05
-0.000111968
-9.36668e-05
-0.000101798
-0.000133157
-6.59085e-05
-0.000135393
-5.79066e-05
-0.000136025
-4.28321e-05
-0.000138092
-3.62534e-05
-0.000135001
-2.54573e-05
-0.000125061
-3.21562e-05
-0.000119676
-1.76731e-05
-0.00011857
-5.00073e-06
-8.08191e-05
-2.1339e-05
-9.14597e-05
4.16202e-05
-8.98698e-05
3.44173e-05
-8.4673e-05
3.63667e-05
-6.80879e-05
4.13723e-05
-5.37438e-05
4.44336e-05
4.47951e-05
-4.31218e-05
-9.76622e-06
-0.000113088
-1.96844e-05
-0.000113743
-3.06547e-05
-0.000112136
-3.92309e-05
-0.000111056
-4.87105e-05
-0.000110251
-6.05158e-05
-9.94741e-05
-7.22052e-05
-0.000100279
-0.000106081
-6.79225e-05
-0.000112944
-5.90449e-05
-0.000120492
-5.03591e-05
-0.000121235
-4.20884e-05
-0.000122878
-3.46105e-05
-0.000122142
-2.61941e-05
-0.000116658
-3.76398e-05
-0.000110152
-2.41796e-05
-0.000106261
-8.89083e-06
-0.000122239
-5.36139e-06
-8.23264e-05
1.70761e-06
-7.71035e-05
2.91944e-05
-6.81853e-05
2.74485e-05
-6.4127e-05
3.73139e-05
-5.94182e-05
3.97248e-05
4.28677e-05
-5.74907e-05
-9.21998e-06
-0.000103868
-1.83091e-05
-0.000104654
-2.93024e-05
-0.000101143
-3.59087e-05
-0.00010445
-4.81966e-05
-9.79629e-05
-5.77213e-05
-8.99493e-05
-8.98484e-05
-6.81518e-05
-9.56999e-05
-6.20709e-05
-0.000100183
-5.4562e-05
-0.000102927
-4.76148e-05
-0.000104554
-4.04613e-05
-0.000105201
-3.39635e-05
-0.000104335
-2.70606e-05
-0.000102241
-3.97335e-05
-9.95671e-05
-2.68536e-05
-9.85208e-05
-9.93709e-06
-9.67787e-05
-7.10355e-06
-9.37182e-05
-1.3529e-06
-7.23303e-05
7.80646e-06
-6.96821e-05
2.48003e-05
-6.06176e-05
2.82495e-05
-5.35167e-05
3.2624e-05
3.55924e-05
-4.62413e-05
-9.07956e-06
-9.47889e-05
-1.87748e-05
-9.49586e-05
-2.85908e-05
-9.13272e-05
-3.98663e-05
-9.31741e-05
-6.12829e-05
-7.65463e-05
-7.46198e-05
-7.66124e-05
-8.09301e-05
-6.18415e-05
-8.41228e-05
-5.88782e-05
-8.81693e-05
-5.05155e-05
-9.05773e-05
-4.52067e-05
-9.25615e-05
-3.84771e-05
-9.36037e-05
-3.29213e-05
-9.37755e-05
-2.68889e-05
-9.31116e-05
-4.03975e-05
-8.90376e-05
-3.09276e-05
-7.90829e-05
-1.98918e-05
-7.85781e-05
-7.60834e-06
-7.73808e-05
-2.5502e-06
-5.44095e-05
-1.51648e-05
-6.18919e-05
3.22827e-05
-5.77176e-05
2.40751e-05
-5.2217e-05
2.71234e-05
3.09322e-05
-4.75569e-05
-8.32629e-06
-8.64626e-05
-1.8491e-05
-8.4794e-05
-2.64948e-05
-8.33234e-05
-4.69086e-05
-7.27603e-05
-5.4415e-05
-6.90399e-05
-6.49174e-05
-6.611e-05
-6.82655e-05
-5.84934e-05
-7.33064e-05
-5.38373e-05
-7.57207e-05
-4.81012e-05
-7.81342e-05
-4.27933e-05
-7.92574e-05
-3.73538e-05
-8.02816e-05
-3.18971e-05
-8.03157e-05
-2.68548e-05
-7.90435e-05
-4.16697e-05
-7.77512e-05
-3.22199e-05
-7.59216e-05
-2.17214e-05
-7.41674e-05
-9.36255e-06
-6.98776e-05
-6.83991e-06
-8.24186e-05
-2.62389e-06
-5.38931e-05
3.75711e-06
-5.28763e-05
2.30583e-05
-4.75008e-05
2.17477e-05
2.69556e-05
-4.35244e-05
-1.11491e-05
-7.53135e-05
-2.18013e-05
-7.41418e-05
-3.32494e-05
-7.18752e-05
-4.05713e-05
-6.54385e-05
-4.60534e-05
-6.35577e-05
-5.30917e-05
-5.90718e-05
-5.7729e-05
-5.3856e-05
-6.15357e-05
-5.00305e-05
-6.49689e-05
-4.4668e-05
-6.74719e-05
-4.02903e-05
-6.95675e-05
-3.52582e-05
-7.08697e-05
-3.05949e-05
-7.18789e-05
-2.58457e-05
-7.17937e-05
-4.17548e-05
-7.11261e-05
-3.28875e-05
-6.85391e-05
-2.43084e-05
-6.25617e-05
-1.53399e-05
-6.42952e-05
-5.10645e-06
-6.43641e-05
-2.55505e-06
-6.39021e-05
3.29512e-06
-4.8658e-05
7.81411e-06
-4.67984e-05
1.9888e-05
2.17233e-05
-4.15663e-05
-9.88802e-06
-6.54255e-05
-1.91336e-05
-6.48962e-05
-2.76425e-05
-6.33664e-05
-3.2895e-05
-6.0186e-05
-3.93428e-05
-5.711e-05
-4.4583e-05
-5.38316e-05
-4.84968e-05
-4.99422e-05
-5.24544e-05
-4.60729e-05
-5.51307e-05
-4.19916e-05
-5.76113e-05
-3.78098e-05
-5.921e-05
-3.36595e-05
-6.04919e-05
-2.9313e-05
-6.11053e-05
-2.52323e-05
-6.16953e-05
-4.11648e-05
-6.1193e-05
-3.33899e-05
-5.97372e-05
-2.57642e-05
-5.72157e-05
-1.78615e-05
-5.49465e-05
-7.37568e-06
-5.40807e-05
-3.4209e-06
-5.24996e-05
1.714e-06
-3.73906e-05
-7.29502e-06
-4.22569e-05
2.47544e-05
1.90185e-05
-3.95521e-05
-7.09971e-06
-5.83258e-05
-1.40375e-05
-5.79585e-05
-2.07285e-05
-5.66754e-05
-2.67999e-05
-5.41147e-05
-3.18716e-05
-5.20382e-05
-3.66648e-05
-4.90384e-05
-4.06738e-05
-4.59333e-05
-4.40966e-05
-4.265e-05
-4.70027e-05
-3.90856e-05
-4.93291e-05
-3.54835e-05
-5.1193e-05
-3.17956e-05
-5.25551e-05
-2.79509e-05
-5.34823e-05
-2.43051e-05
-5.44647e-05
-4.01824e-05
-5.44513e-05
-3.34033e-05
-5.40468e-05
-2.61687e-05
-5.22545e-05
-1.96538e-05
-5.1735e-05
-7.89516e-06
-5.10938e-05
-4.06208e-06
-4.77829e-05
-1.59693e-06
-5.54077e-05
3.29746e-07
-3.49693e-05
4.31597e-06
1.93506e-05
-3.53012e-05
-6.06313e-06
-5.22627e-05
-1.18482e-05
-5.21734e-05
-1.74314e-05
-5.10922e-05
-2.21164e-05
-4.94297e-05
-2.67099e-05
-4.74447e-05
-3.06575e-05
-4.50908e-05
-3.41248e-05
-4.2466e-05
-3.71942e-05
-3.95807e-05
-3.96994e-05
-3.65804e-05
-4.1865e-05
-3.33179e-05
-4.35117e-05
-3.01488e-05
-4.48675e-05
-2.65953e-05
-4.57459e-05
-2.34267e-05
-4.72063e-05
-3.8722e-05
-4.75788e-05
-3.30309e-05
-4.83929e-05
-2.53546e-05
-4.77397e-05
-2.0307e-05
-4.25341e-05
-1.31007e-05
-4.15207e-05
-5.07548e-06
-4.23326e-05
-7.85083e-07
-4.29721e-05
9.69281e-07
-4.48879e-05
6.23187e-06
9.78903e-06
-3.53263e-05
-4.72234e-06
-4.75404e-05
-9.38382e-06
-4.75119e-05
-1.38323e-05
-4.66438e-05
-1.80209e-05
-4.52411e-05
-2.18103e-05
-4.36553e-05
-2.52732e-05
-4.16278e-05
-2.83169e-05
-3.94223e-05
-3.09748e-05
-3.69228e-05
-3.32446e-05
-3.43107e-05
-3.516e-05
-3.14024e-05
-3.67009e-05
-2.8608e-05
-3.80033e-05
-2.52929e-05
-3.89234e-05
-2.25066e-05
-4.05373e-05
-3.71081e-05
-4.07673e-05
-3.28009e-05
-4.03464e-05
-2.57755e-05
-3.9821e-05
-2.08325e-05
-3.94816e-05
-1.34401e-05
-3.88393e-05
-5.71781e-06
-3.82729e-05
-1.35146e-06
-3.68743e-05
-4.29276e-07
-3.66721e-05
6.02967e-06
1.46188e-06
-2.8345e-05
-3.91141e-06
-4.3629e-05
-7.73807e-06
-4.36853e-05
-1.14419e-05
-4.294e-05
-1.48468e-05
-4.18362e-05
-1.80631e-05
-4.0439e-05
-2.09569e-05
-3.8734e-05
-2.35689e-05
-3.68103e-05
-2.58855e-05
-3.46062e-05
-2.7877e-05
-3.23192e-05
-2.96074e-05
-2.96721e-05
-3.09752e-05
-2.72402e-05
-3.21154e-05
-2.41527e-05
-3.28592e-05
-2.17628e-05
-3.45167e-05
-3.54506e-05
-3.54871e-05
-3.18306e-05
-3.56223e-05
-2.56403e-05
-3.57153e-05
-2.07395e-05
-3.43015e-05
-1.4854e-05
-3.05535e-05
-9.4658e-06
-3.02603e-05
-1.64468e-06
-2.9717e-05
-9.72583e-07
-2.94891e-05
5.80169e-06
-4.39826e-06
-2.36289e-05
-3.10315e-06
-4.05258e-05
-6.17443e-06
-4.06141e-05
-9.12985e-06
-3.99846e-05
-1.1926e-05
-3.90401e-05
-1.45135e-05
-3.78515e-05
-1.6864e-05
-3.63835e-05
-1.8956e-05
-3.47183e-05
-2.07605e-05
-3.28018e-05
-2.22998e-05
-3.07799e-05
-2.35489e-05
-2.8423e-05
-2.45708e-05
-2.62183e-05
-2.5553e-05
-2.31705e-05
-2.61566e-05
-2.11592e-05
-2.88669e-05
-3.27403e-05
-2.94293e-05
-3.12683e-05
-2.97083e-05
-2.53613e-05
-2.94154e-05
-2.10325e-05
-2.85314e-05
-1.5738e-05
-2.7614e-05
-1.03833e-05
-2.62198e-05
-3.03893e-06
-2.5935e-05
-1.2574e-06
-2.18105e-05
1.67716e-06
3.20724e-06
-2.9416e-05
-2.39777e-06
-3.81281e-05
-4.77116e-06
-3.82407e-05
-7.07976e-06
-3.7676e-05
-9.27539e-06