/*--------------------------------*- C++ -*----------------------------------*\
| =========                 |                                                 |
| \\      /  F ield         | foam-extend: Open Source CFD                    |
|  \\    /   O peration     | Version:     4.1                                |
|   \\  /    A nd           | Web:         http://www.foam-extend.org         |
|    \\/     M anipulation  |                                                 |
\*---------------------------------------------------------------------------*/
FoamFile
{
    version     2.0;
    format      ascii;
    class       surfaceScalarField;
    location    "0.1";
    object      phi_0;
}
// * * * * * * * * * * * * * * * * * * * * * * * * * * * * * * * * * * * * * //

dimensions      [0 3 -1 0 0 0 0];

internalField   nonuniform List<scalar> 
4432
(
5.5817e-06
-5.5817e-06
1.10457e-05
-5.46402e-06
1.69729e-05
-5.92714e-06
2.21711e-05
-5.19826e-06
2.87879e-05
-6.61673e-06
3.3958e-05
-5.17014e-06
3.99425e-05
-5.98453e-06
4.61096e-05
-6.16708e-06
5.08804e-05
-4.77081e-06
4.88383e-05
2.04211e-06
8.56564e-05
-3.68181e-05
9.7778e-05
-1.21216e-05
0.000107503
-9.72459e-06
0.000119767
-1.22639e-05
0.000141075
-2.13089e-05
0.000159927
-1.88517e-05
0.000190717
-3.07897e-05
0.000211798
-2.10809e-05
0.000230126
-1.83282e-05
0.000242901
-1.27749e-05
0.000237219
5.68212e-06
0.000144333
9.28854e-05
0.000144333
5.58899e-06
-1.11707e-05
1.1072e-05
-1.0947e-05
1.70001e-05
-1.18552e-05
2.22218e-05
-1.042e-05
2.88276e-05
-1.32226e-05
3.41691e-05
-1.05116e-05
3.97165e-05
-1.15319e-05
4.73125e-05
-1.37631e-05
5.13672e-05
-8.82548e-06
8.60062e-05
-3.25969e-05
8.83054e-05
-3.91172e-05
9.92183e-05
-2.30345e-05
0.000108278
-1.87845e-05
0.000123436
-2.74217e-05
0.000141936
-3.98085e-05
0.00015126
-2.81764e-05
9.78479e-05
2.26226e-05
6.9365e-05
7.40196e-06
3.85761e-05
1.24608e-05
2.19251e-05
3.87607e-06
1.95317e-05
8.07557e-06
6.83081e-05
4.41089e-05
0.000212641
5.57498e-06
-1.67457e-05
1.10657e-05
-1.64378e-05
1.69726e-05
-1.77622e-05
2.2157e-05
-1.56043e-05
2.89664e-05
-2.0032e-05
3.38313e-05
-1.53764e-05
4.03134e-05
-1.80141e-05
4.7991e-05
-2.14406e-05
4.98291e-05
-1.06636e-05
8.1438e-05
-6.42059e-05
8.71948e-05
-4.4874e-05
9.77515e-05
-3.35912e-05
0.000107863
-2.88963e-05
0.000126354
-4.5912e-05
0.000145226
-5.86809e-05
0.000164796
-4.7746e-05
0.00018576
1.65854e-06
0.000200309
-7.14706e-06
0.00021352
-7.50479e-07
0.000233457
-1.60607e-05
0.000217054
2.44779e-05
0.0001153
0.000145864
0.000327941
5.55926e-06
-2.23049e-05
1.10682e-05
-2.19467e-05
1.69424e-05
-2.36364e-05
2.21408e-05
-2.08027e-05
2.901e-05
-2.69011e-05
3.37662e-05
-2.01326e-05
4.20174e-05
-2.62654e-05
4.61644e-05
-2.55877e-05
7.96079e-05
-4.41071e-05
7.91945e-05
-6.37924e-05
8.64031e-05
-5.20826e-05
9.82208e-05
-4.54089e-05
0.000110876
-4.15518e-05
0.000132316
-6.73516e-05
0.000149473
-7.58378e-05
0.0001622
-6.04732e-05
0.000172285
-8.42635e-06
0.000164234
9.03415e-07
0.000147518
1.59662e-05
0.000118539
1.29179e-05
0.000100479
4.25376e-05
7.4492e-05
0.000171851
0.000402433
5.52758e-06
-2.78325e-05
1.10619e-05
-2.7481e-05
1.68557e-05
-2.94302e-05
2.21125e-05
-2.60595e-05
2.89253e-05
-3.37139e-05
3.41316e-05
-2.53389e-05
4.18487e-05
-3.39824e-05
4.47533e-05
-2.84923e-05
7.49587e-05
-7.43125e-05
7.81932e-05
-6.70269e-05
8.47956e-05
-5.86851e-05
9.78369e-05
-5.84502e-05
0.000112925
-5.66401e-05
0.000133108
-8.75346e-05
0.000149837
-9.25663e-05
0.000159376
-7.0012e-05
0.00017189
-2.09404e-05
0.000177756
-4.96251e-06
0.00018881
4.91177e-06
0.000200188
1.54001e-06
0.000171305
7.14208e-05
6.31763e-05
0.00027998
0.000465609
5.50717e-06
-3.33397e-05
1.10734e-05
-3.30473e-05
1.6831e-05
-3.51878e-05
2.21649e-05
-3.13933e-05
2.88481e-05
-4.03971e-05
3.58382e-05
-3.23291e-05
3.99217e-05
-3.80659e-05
6.81353e-05
-5.67059e-05
6.89774e-05
-7.51546e-05
7.76453e-05
-7.56948e-05
8.74657e-05
-6.85054e-05
0.00010071
-7.16949e-05
0.00011643
-7.23601e-05
0.000135446
-0.00010655
0.00014848
-0.0001056
0.000154486
-7.60178e-05
0.000152262
-1.87171e-05
0.000147013
2.86872e-07
0.000131189
2.0736e-05
8.79841e-05
4.47446e-05
8.29995e-05
7.64053e-05
4.05553e-05
0.000322424
0.000506165
5.44131e-06
-3.8781e-05
1.10783e-05
-3.86842e-05
1.68589e-05
-4.09684e-05
2.22528e-05
-3.67871e-05
2.94933e-05
-4.76377e-05
3.40424e-05
-3.68782e-05
3.73079e-05
-4.13314e-05
6.46318e-05
-8.40298e-05
6.88851e-05
-7.94079e-05
7.77711e-05
-8.45809e-05
8.82462e-05
-7.89805e-05
0.000102414
-8.58629e-05
0.000116503
-8.64491e-05
0.000130677
-0.000120724
0.000139321
-0.000114244
0.000143763
-8.04598e-05
0.000156397
-3.13513e-05
0.000180809
-2.4125e-05
0.00021258
-1.10352e-05
0.000235304
2.20212e-05
0.000110534
0.000201175
8.1684e-05
0.000351273
0.000587849
5.43069e-06
-4.42117e-05
1.11781e-05
-4.44317e-05
1.7107e-05
-4.68973e-05
2.2404e-05
-4.20842e-05
2.99186e-05
-5.51523e-05
3.19682e-05
-3.89278e-05
5.90093e-05
-6.83724e-05
6.22114e-05
-8.7232e-05
6.92105e-05
-8.6407e-05
7.94391e-05
-9.48095e-05
9.14419e-05
-9.09834e-05
0.000102987
-9.74077e-05
0.000109717
-9.31796e-05
0.000118919
-0.000129925
0.00012946
-0.000124785
0.000136886
-8.78864e-05
0.000146973
-4.1438e-05
0.000146871
-2.4023e-05
0.000140809
-4.97303e-06
0.000112138
5.06917e-05
0.000133022
0.000180291
0.000105794
0.000378502
0.000693642
-1.55631e-05
1.55631e-05
-2.78968e-05
1.23337e-05
-3.3359e-05
5.46229e-06
-3.22643e-05
-1.09468e-06
-2.79292e-05
-4.33508e-06
-2.4456e-05
-3.47321e-06
-2.05642e-05
-3.89171e-06
-1.6753e-05
-3.81113e-06
-1.30974e-05
-3.65577e-06
-1.02784e-05
-2.81895e-06
-6.97171e-06
-3.30664e-06
-5.99981e-06
-9.71861e-07
-4.05696e-06
-1.94277e-06
-2.37552e-06
-1.68159e-06
-1.51464e-06
-8.60878e-07
-9.12267e-07
-6.02268e-07
-5.06051e-07
-4.06192e-07
-2.17632e-07
-2.88466e-07
-2.17642e-07
-1.60778e-05
3.1641e-05
-3.04141e-05
2.667e-05
-3.51112e-05
1.01595e-05
-3.2644e-05
-3.56181e-06
-2.78772e-05
-9.10186e-06
-2.43958e-05
-6.95462e-06
-2.07054e-05
-7.58222e-06
-1.70116e-05
-7.50477e-06
-1.29629e-05
-7.70465e-06
-9.83834e-06
-5.94331e-06
-6.80443e-06
-6.34047e-06
-4.51647e-06
-3.26008e-06
-2.86324e-06
-3.5959e-06
-2.00441e-06
-2.54032e-06
-1.14917e-06
-1.7161e-06
-6.6249e-07
-1.08896e-06
-3.54463e-07
-7.1423e-07
-1.60608e-07
-4.82302e-07
-3.78253e-07
-2.01999e-05
5.18409e-05
-3.38248e-05
4.02949e-05
-3.71354e-05
1.34701e-05
-3.41068e-05
-6.59035e-06
-2.82247e-05
-1.4984e-05
-2.38079e-05
-1.13715e-05
-1.92979e-05
-1.20923e-05
-1.60907e-05
-1.07117e-05
-1.30235e-05
-1.07721e-05
-9.24919e-06
-9.71766e-06
-6.55612e-06
-9.03339e-06
-4.98714e-06
-4.82916e-06
-2.56883e-06
-6.01415e-06
-1.65454e-06
-3.45456e-06
-1.01334e-06
-2.35729e-06
-5.76758e-07
-1.52553e-06
-3.27411e-07
-9.63564e-07
-1.37825e-07
-6.71874e-07
-5.1608e-07
-2.43623e-05
7.62033e-05
-4.14553e-05
5.7388e-05
-4.20939e-05
1.41087e-05
-3.62373e-05
-1.2447e-05
-2.87098e-05
-2.25114e-05
-2.36236e-05
-1.64578e-05
-1.93162e-05
-1.63999e-05
-1.48921e-05
-1.51356e-05
-1.0543e-05
-1.51214e-05
-8.88058e-06
-1.13801e-05
-6.05475e-06
-1.18591e-05
-4.02335e-06
-6.86061e-06
-2.27946e-06
-7.75802e-06
-1.53678e-06
-4.1972e-06
-8.78202e-07
-3.01585e-06
-5.16423e-07
-1.8873e-06
-2.71002e-07
-1.20897e-06
-1.14667e-07
-8.28198e-07
-6.30747e-07
-3.51206e-05
0.000111324
-4.96889e-05
7.19564e-05
-4.71394e-05
1.15591e-05
-3.9043e-05
-2.05434e-05
-2.9861e-05
-3.16933e-05
-2.45531e-05
-2.17656e-05
-1.93652e-05
-2.15879e-05
-1.47956e-05
-1.9705e-05
-1.17995e-05
-1.81175e-05
-8.59959e-06
-1.45801e-05
-4.22963e-06
-1.62289e-05
-3.34829e-06
-7.74197e-06
-2.29008e-06
-8.81622e-06
-1.45613e-06
-5.03113e-06
-7.49331e-07
-3.72264e-06
-4.43522e-07
-2.1931e-06
-2.1147e-07
-1.44102e-06
-8.94947e-08
-9.50165e-07
-7.2024e-07
-4.9499e-05
0.000160823
-6.17288e-05
8.41862e-05
-5.47373e-05
4.56766e-06
-4.26936e-05
-3.25871e-05
-3.08851e-05
-4.35018e-05
-2.46799e-05
-2.79708e-05
-1.82893e-05
-2.79786e-05
-1.4414e-05
-2.35802e-05
-1.11563e-05
-2.13752e-05
-5.4374e-06
-2.0299e-05
-4.11147e-06
-1.75547e-05
-2.9323e-06
-8.92113e-06
-1.66643e-06
-1.00821e-05
-1.10065e-06
-5.59688e-06
-5.76885e-07
-4.24639e-06
-3.08493e-07
-2.46149e-06
-1.22551e-07
-1.62695e-06
-6.11127e-08
-1.0116e-06
-7.8135e-07
-6.75502e-05
0.000228373
-7.64738e-05
9.311e-05
-6.21154e-05
-9.79069e-06
-2.73794e-05
-6.73233e-05
-3.41327e-05
-3.67485e-05
-2.46255e-05
-3.7478e-05
-1.74351e-05
-3.51692e-05
-1.36559e-05
-2.73594e-05
-5.72055e-06
-2.93106e-05
-5.13907e-06
-2.08806e-05
-3.88321e-06
-1.88105e-05
-2.0291e-06
-1.07752e-05
-1.39939e-06
-1.07118e-05
-7.52419e-07
-6.24383e-06
-4.10944e-07
-4.58785e-06
-1.61764e-07
-2.71066e-06
-5.2821e-08
-1.73589e-06
-2.67964e-08
-1.03761e-06
-8.08142e-07
-9.93788e-05
0.000327752
-5.64349e-05
5.01659e-05
-4.16719e-05
-2.45536e-05
-2.83971e-05
-8.05979e-05
-2.00408e-05
-4.51049e-05
-1.49226e-05
-4.2596e-05
-1.20157e-05
-3.80761e-05
-7.92999e-06
-3.14451e-05
-6.65716e-06
-3.05834e-05
-5.48083e-06
-2.20569e-05
-3.02859e-06
-2.12627e-05
-1.49742e-06
-1.23064e-05
-7.12885e-07
-1.14963e-05
-4.16758e-07
-6.53995e-06
-1.52527e-07
-4.85207e-06
-4.60995e-08
-2.81708e-06
2.05333e-08
-1.80252e-06
1.73911e-08
-1.03446e-06
-7.90747e-07
1.12451e-05
-5.54568e-05
2.34195e-05
-5.6606e-05
3.4082e-05
-5.75599e-05
4.84711e-05
-5.64732e-05
5.86611e-05
-6.53423e-05
0.000102796
-8.30623e-05
0.000121171
-8.67474e-05
0.000132594
-9.8655e-05
0.000148622
-0.000102436
0.000166463
-0.00011265
0.000193049
-0.00011757
0.000219799
-0.000124158
0.000209826
-8.3206e-05
0.000238647
-0.000158747
0.000252752
-0.00013889
0.000267081
-0.000102216
0.000314087
-8.84442e-05
0.000362859
-7.27945e-05
0.000373084
-1.51982e-05
0.000289315
0.000134461
0.000224697
0.000244909
0.000350589
0.00025261
0.00116144
-0.000117209
1.11741e-05
-6.6631e-05
2.52823e-05
-7.07141e-05
3.62977e-05
-6.85753e-05
6.72736e-05
-8.74491e-05
8.34799e-05
-8.15486e-05
9.91368e-05
-9.87192e-05
0.000113058
-0.000100669
0.000124944
-0.000110541
0.000140439
-0.000117931
0.000156782
-0.000128994
0.000172012
-0.000132799
0.000199661
-0.000151806
0.00021561
-9.91554e-05
0.000237784
-0.000180921
0.000244984
-0.000146089
0.000231861
-8.9093e-05
0.000254912
-0.000111494
0.00023824
-5.61232e-05
0.000249076
-2.60335e-05
0.000286244
9.72918e-05
0.000251631
0.000279523
0.00034068
0.000163561
0.00136305
0.00013907
1.66825e-05
-8.33135e-05
3.30192e-05
-8.70508e-05
5.11688e-05
-8.67249e-05
6.38983e-05
-0.000100179
8.07019e-05
-9.83522e-05
9.17961e-05
-0.000109813
0.000105496
-0.000114368
0.000119671
-0.000124716
0.000133561
-0.000131821
0.00014803
-0.000143463
0.000163162
-0.000147931
0.000186514
-0.000175159
0.000193277
-0.000105918
0.000194769
-0.000182412
0.000194363
-0.000145684
0.000236666
-0.000131396
0.000268311
-0.00014314
0.000313655
-0.000101467
0.000304334
-1.67123e-05
0.000269835
0.000131791
0.000203795
0.000345562
0.000200466
0.00016689
0.00134971
0.000213806
1.61045e-05
-9.9418e-05
3.14053e-05
-0.000102352
4.77572e-05
-0.000103077
5.86039e-05
-0.000111025
7.24772e-05
-0.000112226
8.56457e-05
-0.000122982
9.79658e-05
-0.000126688
0.00011016
-0.00013691
0.000122499
-0.00014416
0.00013443
-0.000155394
0.000147785
-0.000161287
0.000169743
-0.000197116
0.000177334
-0.00011351
0.000177416
-0.000182494
0.000189106
-0.000157374
0.000203332
-0.000145622
0.000190987
-0.000130794
0.000177124
-8.76042e-05
0.000125327
3.5085e-05
0.000138432
0.000118685
0.000230444
0.000253551
0.000267073
0.000130262
0.00117751
0.000439274
1.38672e-05
-0.000113285
2.7207e-05
-0.000115691
4.085e-05
-0.00011672
5.35684e-05
-0.000123744
6.72678e-05
-0.000125925
7.83421e-05
-0.000134056
8.99327e-05
-0.000138279
0.000101789
-0.000148766
0.000112766
-0.000155137
0.000122497
-0.000165125
0.000134343
-0.000173133
0.000152228
-0.000215001
0.000154934
-0.000116216
0.000149011
-0.000176572
0.000153256
-0.000161619
0.000165156
-0.000157522
0.000135757
-0.000101396
0.000128675
-8.05224e-05
5.12305e-05
0.00011253
6.55738e-05
0.000104342
0.000118094
0.000201031
0.000142707
0.000105648
0.000699335
0.000620881
1.28258e-05
-0.000126111
2.5107e-05
-0.000127973
3.80543e-05
-0.000129667
4.88951e-05
-0.000134584
6.04405e-05
-0.00013747
7.17049e-05
-0.00014532
8.21512e-05
-0.000148725
9.27731e-05
-0.000159388
0.000101153
-0.000163517
0.000107603
-0.000171575
0.000117707
-0.000183237
0.000130414
-0.000227707
0.000130713
-0.000116515
0.000125232
-0.00017109
0.000131357
-0.000167744
0.000137094
-0.000163259
0.000131256
-9.55572e-05
3.5642e-05
1.50911e-05
2.04008e-05
0.000127771
5.03546e-05
7.43883e-05
0.000152102
9.92831e-05
0.000190167
6.75833e-05
0.000319455
0.000570047
1.12248e-05
-0.000137336
2.22526e-05
-0.000139
3.34217e-05
-0.000140836
4.41999e-05
-0.000145363
5.53864e-05
-0.000148657
6.53678e-05
-0.000155302
7.56738e-05
-0.000159031
8.48992e-05
-0.000168613
8.88961e-05
-0.000167514
9.14914e-05
-0.00017417
9.76785e-05
-0.000189424
0.000107252
-0.00023728
0.000105887
-0.000115151
0.000100551
-0.000165753
9.22823e-05
-0.000159476
9.07747e-05
-0.000161752
-8.61977e-06
3.83743e-06
-4.0295e-05
4.67661e-05
2.29468e-05
6.45295e-05
4.36991e-05
5.36361e-05
0.000105922
3.70602e-05
0.000185635
-1.21293e-05
0.000135864
0.000369226
1.01319e-05
-0.000147468
2.00422e-05
-0.000148911
3.02744e-05
-0.000151068
3.98182e-05
-0.000154906
4.98712e-05
-0.00015871
5.96405e-05
-0.000165071
7.07228e-05
-0.000170114
7.55993e-05
-0.00017349
7.32907e-05
-0.000165205
7.37156e-05
-0.000174595
7.62932e-05
-0.000192002
8.46183e-05
-0.000245605
8.12834e-05
-0.000111816
7.69193e-05
-0.000161389
0.000123195
-0.000205751
6.57529e-05
-0.000104309
-9.14644e-06
7.87368e-05
-1.48626e-05
5.24823e-05
-4.64995e-06
5.4317e-05
1.06315e-05
3.83545e-05
2.18225e-05
2.58693e-05
2.59303e-06
7.10003e-06
2.66785e-05
0.000111779
8.84055e-06
-0.000156308
1.76046e-05
-0.000157675
2.66605e-05
-0.000160124
3.54528e-05
-0.000163699
4.52136e-05
-0.000168471
5.37004e-05
-0.000173558
6.33671e-05
-0.00017978
6.51858e-05
-0.000175308
6.33419e-05
-0.000163361
6.4145e-05
-0.000175398
6.47229e-05
-0.00019258
6.39333e-05
-0.000244816
6.00726e-05
-0.000107956
5.82553e-05
-0.000159572
6.05202e-05
-0.000208016
-4.37134e-05
-7.60073e-08
-2.52552e-05
6.02787e-05
-2.73644e-05
5.45917e-05
-2.83862e-05
5.53391e-05
-3.26282e-05
4.25961e-05
-4.61627e-05
3.9404e-05
-6.82236e-05
2.9161e-05
9.08932e-05
-0.000132438
7.53375e-06
-0.000163842
1.49804e-05
-0.000165121
2.27065e-05
-0.00016785
3.01185e-05
-0.000171111
3.88714e-05
-0.000177224
4.6394e-05
-0.000181081
5.47274e-05
-0.000188114
5.60152e-05
-0.000176596
5.38736e-05
-0.00016122
5.30595e-05
-0.000174584
4.76923e-05
-0.000187212
4.08561e-05
-0.00023798
3.72659e-05
-0.000104365
1.24033e-05
-0.000134709
-4.32413e-06
-0.000191289
-2.71796e-05
2.27794e-05
-2.33816e-05
5.64808e-05
-2.10148e-05
5.22245e-05
-2.81604e-05
6.2485e-05
-5.35374e-05
6.7973e-05
-8.02904e-05
6.61571e-05
-0.00015751
0.000106381
0.000158678
-0.000225294
6.36237e-06
-0.000170204
1.28175e-05
-0.000171576
1.9546e-05
-0.000174579
2.68576e-05
-0.000178422
3.55274e-05
-0.000185893
4.58661e-05
-0.000191419
6.14197e-05
-0.000203667
8.77883e-05
-0.000202965
6.47896e-05
-0.000138221
2.94706e-05
-0.000139265
-5.46279e-06
-0.000152279
3.26796e-06
-0.00024671
7.17561e-06
-0.000108273
2.25986e-06
-0.000129793
1.37282e-05
-0.000202757
1.98373e-06
3.45237e-05
-6.30817e-06
6.47731e-05
-1.63084e-05
6.22247e-05
-3.51258e-05
8.13026e-05
-5.4866e-05
8.77131e-05
-8.2315e-05
9.36059e-05
-0.000136381
0.000160447
0.00018853
-0.000166233
4.65248e-06
-0.000174857
9.33223e-06
-0.000176256
1.36729e-05
-0.00017892
1.81678e-05
-0.000182917
2.11498e-05
-0.000188876
2.59151e-05
-0.000196184
2.96327e-05
-0.000207385
3.8516e-05
-0.000211848
3.46566e-05
-0.000134362
2.76514e-05
-0.00013226
2.12318e-05
-0.000145859
2.02577e-05
-0.000245736
1.25865e-05
-0.000100602
2.82986e-05
-0.000145506
5.62516e-05
-0.00023071
4.49777e-05
4.57975e-05
1.23715e-05
9.73792e-05
-1.68526e-05
9.14488e-05
-3.57438e-05
0.000100194
-5.12412e-05
0.000103211
-7.25362e-05
0.000114901
-9.74152e-05
0.000185326
0.000192277
-0.000101163
3.35827e-06
-0.000178215
6.66398e-06
-0.000179562
9.64122e-06
-0.000181897
1.25309e-05
-0.000185807
1.43371e-05
-0.000190682
1.74774e-05
-0.000199325
1.87788e-05
-0.000208686
2.47863e-05
-0.000217856
2.41798e-05
-0.000133755
2.11685e-05
-0.000129249
9.22842e-06
-0.000133919
1.00174e-05
-0.000246525
1.39425e-06
-9.19786e-05
3.5315e-05
-0.000179426
1.80891e-05
-0.000213484
7.99149e-05
-1.60282e-05
3.66665e-05
0.000140627
-1.64401e-06
0.000129759
-1.35146e-05
0.000112065
-2.13432e-05
0.000111039
-8.65626e-05
0.00018012
-6.92526e-05
0.000168016
0.000195855
-7.28311e-05
1.4235e-06
-0.000179639
2.73811e-06
-0.000180877
3.95041e-06
-0.000183109
4.93636e-06
-0.000186793
5.30673e-06
-0.000191052
5.5948e-06
-0.000199613
7.11164e-06
-0.000210203
1.44771e-05
-0.000225221
1.14888e-05
-0.000130767
2.00945e-05
-0.000137854
2.35701e-05
-0.000137395
-5.29555e-05
-0.00017
-2.39562e-05
-0.000120978
3.70532e-05
-0.000240436
5.68704e-05
-0.000233301
3.65439e-05
4.29861e-06
6.60526e-06
0.000170566
-2.61582e-05
0.000162523
-4.9966e-05
0.000135872
-6.45112e-05
0.000125584
-7.56993e-05
0.000191309
-8.18358e-05
0.000174152
0.000185809
-7.17888e-05
1.22951e-06
-0.000180868
2.20927e-06
-0.000181856
3.34194e-06
-0.000184242
3.80337e-06
-0.000187254
3.84853e-06
-0.000191097
8.2138e-07
-0.000196586
-5.48029e-06
-0.000203902
-1.75728e-05
-0.000213129
3.00518e-05
-0.000178391
1.80159e-05
-0.000125818
1.7687e-05
-0.000137066
6.34198e-06
-0.000158654
1.78838e-05
-0.00013252
1.52424e-05
-0.000237794
-6.35246e-05
-0.000154534
-9.80115e-05
3.87856e-05
-6.31987e-05
0.000135753
-6.50287e-05
0.000164353
-4.57231e-05
0.000116567
-9.73738e-05
0.000177235
-6.53895e-05
0.000159324
-5.58354e-05
0.000164598
0.000175247
-4.52735e-05
1.3426e-06
-0.000182211
1.78905e-06
-0.000182303
2.98904e-06
-0.000185442
2.89327e-06
-0.000187159
3.14048e-06
-0.000191345
6.64635e-07
-0.00019411
-4.00105e-06
-0.000199236
-1.82407e-05
-0.000198889
-2.27805e-05
-0.000173852
2.0099e-05
-0.000168698
1.23324e-05
-0.000129299
-8.10317e-07
-0.000145512
-1.56268e-05
-0.000117703
-4.29103e-05
-0.000210511
-9.28363e-05
-0.000104608
-0.000156096
0.000102046
-0.000128958
0.000108615
-7.75655e-05
0.00011296
-0.000132367
0.000171369
-0.000110814
0.000155682
-0.000104528
0.000153038
-9.31761e-05
0.000153247
0.000158247
-7.61766e-05
1.51722e-07
-0.000182363
5.75458e-07
-0.000182726
6.13694e-07
-0.00018548
1.20607e-07
-0.000186665
-1.84679e-07
-0.000191039
-6.3792e-07
-0.000193657
-4.82498e-06
-0.000195049
-1.19832e-05
-0.000191731
-1.12537e-05
-0.000174581
-3.00425e-05
-0.000149909
-6.49166e-06
-0.00015285
-3.09724e-05
-0.000121031
-2.1109e-05
-0.000127567
-0.000115557
-0.000116063
-0.000143642
-7.65235e-05
-0.000137039
9.54423e-05
-0.000178869
0.000150445
-0.000175179
0.000109269
-0.000144244
0.000140434
-0.000125773
0.000137211
-0.000113089
0.000140354
-8.93756e-05
0.000129533
0.000140928
-7.20571e-05
-1.11232e-06
-0.00018125
-1.977e-06
-0.000181862
-3.01408e-06
-0.000184443
-2.93896e-06
-0.000186741
-2.00697e-06
-0.000191971
-2.48867e-07
-0.000195415
4.73789e-07
-0.000195771
-1.44544e-07
-0.000191112
-5.99049e-06
-0.000168735
-1.82253e-05
-0.000137674
-2.77227e-05
-0.000143353
-2.13124e-05
-0.000127441
-3.89847e-05
-0.000109894
-7.76525e-05
-7.73948e-05
-0.000180174
2.59984e-05
-0.000198038
0.000113306
-0.000182554
0.000134962
-0.000163226
8.99408e-05
-0.000142375
0.000119582
-0.000120572
0.000115408
-0.000108577
0.00012836
-8.97992e-05
0.000110755
0.000105084
-5.39549e-05
-2.0367e-06
-0.000179213
-4.09695e-06
-0.000179802
-5.60284e-06
-0.000182937
-6.55229e-06
-0.000185791
-7.43016e-06
-0.000191093
-7.86811e-06
-0.000194977
-5.25773e-06
-0.000198382
-2.13091e-06
-0.000194239
-5.50231e-06
-0.000165364
-2.41156e-05
-0.000119061
-7.78063e-06
-0.000159688
-5.14107e-05
-8.38113e-05
-8.65281e-05
-7.47768e-05
-0.000116691
-4.72317e-05
-0.000133782
4.30888e-05
-0.000130584
0.000110108
-0.000116184
0.000120562
-0.000142504
0.000116261
-0.00012695
0.000104028
-0.000113801
0.000102258
-7.24609e-05
8.70199e-05
-6.05495e-05
9.8844e-05
9.24845e-05
-4.79498e-05
-7.53904e-06
-0.000171674
-1.35839e-05
-0.000173757
-2.05304e-05
-0.000175991
-2.55059e-05
-0.000180816
-3.4438e-05
-0.000182161
-4.49052e-05
-0.000184509
-6.01167e-05
-0.00018317
-7.37284e-05
-0.000180628
-7.05175e-05
-0.000168575
-5.366e-05
-0.000135919
-0.000104646
-0.000108702
-0.000108731
-7.97264e-05
-0.000131432
-5.20758e-05
-0.00015135
-2.73138e-05
-0.000138329
3.00683e-05
-0.000128089
9.98682e-05
-0.000108625
0.000101097
-9.41074e-05
0.000101743
-8.00801e-05
9.00011e-05
-7.08638e-05
9.3042e-05
-6.42297e-05
8.03859e-05
-5.74327e-05
9.20471e-05
8.56803e-05
-5.06284e-05
-1.0038e-05
-0.000161636
-1.9822e-05
-0.000163973
-3.04358e-05
-0.000165377
-4.30001e-05
-0.000168251
-5.61887e-05
-0.000168973
-7.22485e-05
-0.00016845
-8.86709e-05
-0.000166748
-0.000104885
-0.000164414
-0.000110266
-0.000163193
-0.000126935
-0.00011925
-0.000122012
-0.000113624
-0.000140987
-6.07522e-05
-0.000148314
-4.47489e-05
-0.000194802
1.91746e-05
-0.000203948
3.92141e-05
-0.000136654
3.25743e-05
-0.000116399
8.08422e-05
-9.26348e-05
7.79796e-05
-8.20932e-05
7.94595e-05
-7.17555e-05
8.27044e-05
-6.66307e-05
7.52611e-05
-5.72072e-05
8.26237e-05
7.70856e-05
-4.86124e-05
-1.02235e-05
-0.000151413
-2.03475e-05
-0.000153849
-3.13528e-05
-0.000154371
-4.41942e-05
-0.00015541
-5.69426e-05
-0.000156224
-7.0892e-05
-0.0001545
-8.54274e-05
-0.000152212
-0.0001028
-0.000147041
-0.000128742
-0.000137251
-0.000133096
-0.000114896
-0.000176728
-6.99925e-05
-0.000185605
-5.1875e-05
-0.000196511
-3.3843e-05
-0.000174419
-2.9173e-06
-0.000115343
-1.98623e-05
-0.000127219
4.44509e-05
-0.000115464
6.9087e-05
-9.72968e-05
5.98123e-05
-8.43513e-05
6.65141e-05
-7.02994e-05
6.86525e-05
-6.47237e-05
6.96854e-05
-5.60627e-05
7.39627e-05
7.01418e-05
-4.9119e-05
-9.34564e-06
-0.000142067
-1.96546e-05
-0.00014354
-3.04926e-05
-0.000143533
-4.27428e-05
-0.00014316
-5.61513e-05
-0.000142816
-7.16389e-05
-0.000139013
-8.87679e-05
-0.000135083
-0.000110088
-0.000125721
-0.000133576
-0.000113762
-0.000127215
-0.000121257
-0.000161965
-3.52425e-05
-0.000173639
-4.02009e-05
-0.000172611
-3.48711e-05
-0.000157262
-1.8266e-05
-0.000167674
-9.4507e-06
-0.000123774
5.51148e-07
-0.000116264
6.15774e-05
-9.23106e-05
3.58588e-05
-8.39749e-05
5.81784e-05
-7.39562e-05
5.86338e-05
-6.56331e-05
6.13623e-05
-5.58217e-05
6.41513e-05
6.15407e-05
-4.72205e-05
-9.7981e-06
-0.000132269
-1.99661e-05
-0.000133372
-3.0446e-05
-0.000133054
-4.24147e-05
-0.000131191
-5.43402e-05
-0.00013089
-6.7875e-05
-0.000125478
-7.87934e-05
-0.000124165
-8.84254e-05
-0.000116089
-9.6814e-05
-0.000105373
-0.000158036
-6.00351e-05
-0.00014997
-4.33083e-05
-0.000151904
-3.82677e-05
-0.000164442
-2.23325e-05
-0.000160646
-2.20624e-05
-0.00015797
-1.21269e-05
-0.000153676
-3.74276e-06
-0.000109003
1.69046e-05
-0.000104312
3.11674e-05
-8.22106e-05
3.60773e-05
-6.51169e-05
4.15401e-05
-6.15931e-05
5.78386e-05
-5.59749e-05
5.85331e-05
5.50736e-05
-4.95078e-05
-9.58805e-06
-0.000122681
-1.94888e-05
-0.000123471
-2.96281e-05
-0.000122914
-4.13428e-05
-0.000119476
-5.27029e-05
-0.00011953
-6.70181e-05
-0.000111163
-7.92897e-05
-0.000111893
-9.36038e-05
-0.000101775
-0.000133123
-6.58543e-05
-0.000135277
-5.78812e-05
-0.000135827
-4.27576e-05
-0.000137885
-3.62101e-05
-0.000134806
-2.54112e-05
-0.000124848
-3.20202e-05
-0.000119446
-1.7529e-05
-0.000118377
-4.81162e-06
-8.04849e-05
-2.09879e-05
-9.10694e-05
4.17519e-05
-8.94284e-05
3.44364e-05
-8.42199e-05
3.63316e-05
-6.76408e-05
4.12596e-05
-5.33104e-05
4.42027e-05
4.45026e-05
-4.27392e-05
-9.76058e-06
-0.000112921
-1.96655e-05
-0.000113566
-3.05948e-05
-0.000111985
-3.91829e-05
-0.000110888
-4.8633e-05
-0.00011008
-6.04315e-05
-9.93644e-05
-7.21069e-05
-0.000100218
-0.000106007
-6.78755e-05
-0.000112854
-5.90073e-05
-0.000120439
-5.02958e-05
-0.000121166
-4.20301e-05
-0.000122797
-3.45799e-05
-0.000122054
-2.61541e-05
-0.000116522
-3.75516e-05
-0.000109989
-2.40624e-05
-0.000105981
-8.81924e-06
-0.000121671
-5.29801e-06
-8.19414e-05
2.02216e-06
-7.67169e-05
2.9212e-05
-6.77963e-05
2.74109e-05
-6.37335e-05
3.71968e-05
-5.90382e-05
3.95076e-05
4.25954e-05
-5.7131e-05
-9.21405e-06
-0.000103706
-1.8295e-05
-0.000104485
-2.9259e-05
-0.000101021
-3.58444e-05
-0.000104303
-4.80969e-05
-9.78276e-05
-5.76153e-05
-8.98459e-05
-8.97402e-05
-6.80931e-05
-9.56033e-05
-6.20124e-05
-0.000100085
-5.45254e-05
-0.000102819
-4.75623e-05
-0.000104437
-4.04117e-05
-0.000105097
-3.39201e-05
-0.000104226
-2.70249e-05
-0.000102082
-3.96954e-05
-9.93243e-05
-2.68202e-05
-9.82379e-05
-9.90571e-06
-9.64923e-05
-7.04357e-06
-9.33743e-05
-1.09588e-06
-7.20086e-05
7.84625e-06
-6.93562e-05
2.47585e-05
-6.02927e-05
2.81332e-05
-5.32219e-05
3.24368e-05
3.53657e-05
-4.59923e-05
-9.04505e-06
-9.46614e-05
-1.87057e-05
-9.48244e-05
-2.85344e-05
-9.11922e-05
-3.97765e-05
-9.30606e-05
-6.11578e-05
-7.64463e-05
-7.44815e-05
-7.65222e-05
-8.0802e-05
-6.17725e-05
-8.39998e-05
-5.88145e-05
-8.80675e-05
-5.04578e-05
-9.04745e-05
-4.51553e-05
-9.24477e-05
-3.84384e-05
-9.34829e-05
-3.28849e-05
-9.36405e-05
-2.68672e-05
-9.29732e-05
-4.03627e-05
-8.89116e-05
-3.08819e-05
-7.89779e-05
-1.98395e-05
-7.84192e-05
-7.60227e-06
-7.71206e-05
-2.39448e-06
-5.41917e-05
-1.50827e-05
-6.15959e-05
3.21628e-05
-5.74302e-05
2.39675e-05
-5.19581e-05
2.69646e-05
3.07489e-05
-4.73413e-05
-8.30822e-06
-8.63532e-05
-1.84557e-05
-8.46768e-05
-2.64389e-05
-8.32091e-05
-4.68185e-05
-7.2681e-05
-5.4333e-05
-6.89318e-05
-6.48387e-05
-6.60165e-05
-6.81679e-05
-5.84434e-05
-7.32117e-05
-5.37707e-05
-7.56174e-05
-4.80521e-05
-7.80304e-05
-4.27422e-05
-7.91565e-05
-3.73123e-05
-8.01776e-05
-3.18639e-05
-8.02161e-05
-2.68287e-05
-7.89305e-05
-4.16484e-05
-7.76041e-05
-3.22082e-05
-7.57542e-05
-2.16894e-05
-7.39965e-05
-9.36003e-06
-6.96099e-05
-6.78115e-06
-8.2056e-05
-2.63655e-06
-5.36138e-05
3.72046e-06
-5.26343e-05
2.2988e-05
-4.72944e-05
2.16247e-05
2.67973e-05
-4.33428e-05
-1.11441e-05
-7.5209e-05
-2.1782e-05
-7.40389e-05
-3.32065e-05
-7.17846e-05
-4.05444e-05
-6.53431e-05
-4.60081e-05
-6.34681e-05
-5.30148e-05
-5.90098e-05
-5.76559e-05
-5.38022e-05
-6.14554e-05
-4.99711e-05
-6.48808e-05
-4.46267e-05
-6.73768e-05
-4.02462e-05
-6.94609e-05
-3.52282e-05
-7.07581e-05
-3.05667e-05
-7.17586e-05
-2.58282e-05
-7.16814e-05
-4.17256e-05
-7.10224e-05
-3.28673e-05
-6.84079e-05
-2.43039e-05
-6.24249e-05
-1.5343e-05
-6.40943e-05
-5.11182e-06
-6.41356e-05
-2.59515e-06
-6.36686e-05
3.25346e-06
-4.84636e-05
7.78296e-06
-4.66229e-05
1.97841e-05
2.15938e-05
-4.14193e-05
-9.86425e-06
-6.53447e-05
-1.90875e-05
-6.48157e-05
-2.75913e-05
-6.32808e-05
-3.28281e-05
-6.01063e-05
-3.92554e-05
-5.70408e-05
-4.44999e-05
-5.37652e-05
-4.84168e-05
-4.98853e-05
-5.23674e-05
-4.60205e-05
-5.50474e-05
-4.19467e-05
-5.75234e-05
-3.77703e-05
-5.91256e-05
-3.36259e-05
-6.04035e-05
-2.92888e-05
-6.10185e-05
-2.52131e-05
-6.15943e-05
-4.11499e-05
-6.10813e-05
-3.33802e-05
-5.96111e-05
-2.57741e-05
-5.70825e-05
-1.78716e-05
-5.4802e-05
-7.39232e-06
-5.39357e-05
-3.46141e-06
-5.23732e-05
1.691e-06
-3.72805e-05
-7.30964e-06
-4.21018e-05
2.46054e-05
1.89094e-05
-3.94173e-05
-7.09158e-06
-5.82532e-05
-1.40245e-05
-5.78827e-05
-2.07026e-05
-5.66027e-05
-2.67605e-05
-5.40484e-05
-3.18279e-05
-5.19734e-05
-3.66109e-05
-4.89821e-05
-4.06135e-05
-4.58827e-05
-4.40301e-05
-4.26039e-05
-4.69297e-05
-3.9047e-05
-4.92504e-05
-3.54495e-05
-5.11081e-05
-3.17682e-05
-5.24662e-05
-2.79307e-05
-5.33886e-05
-2.42906e-05
-5.43648e-05
-4.01737e-05
-5.43488e-05
-3.33962e-05
-5.3928e-05
-2.61948e-05
-5.21333e-05
-1.96664e-05
-5.16064e-05
-7.91918e-06
-5.09613e-05
-4.10646e-06
-4.76247e-05
-1.64555e-06
-5.51934e-05
2.59102e-07
-3.48356e-05
4.24762e-06
1.92639e-05
-3.519e-05
-6.0489e-06
-5.22043e-05
-1.18222e-05
-5.21094e-05
-1.73944e-05
-5.10304e-05
-2.2073e-05
-4.93698e-05
-2.66568e-05
-4.73895e-05
-3.06e-05
-4.50389e-05
-3.40633e-05
-4.24193e-05
-3.7128e-05
-3.95391e-05
-3.96318e-05
-3.65432e-05
-4.17933e-05
-3.32879e-05
-4.34396e-05
-3.01219e-05
-4.47919e-05
-2.65783e-05
-4.56693e-05
-2.34133e-05
-4.71216e-05
-3.87214e-05
-4.74895e-05
-3.30282e-05
-4.82993e-05
-2.5385e-05
-4.76463e-05
-2.03193e-05
-4.24307e-05
-1.31348e-05
-4.14161e-05
-5.121e-06
-4.22253e-05
-8.36364e-07
-4.28779e-05
9.11747e-07
-4.47506e-05
6.12034e-06
9.75119e-06
-3.52379e-05
-4.71586e-06
-4.74884e-05
-9.36982e-06
-4.74554e-05
-1.38118e-05
-4.65884e-05
-1.79921e-05
-4.51895e-05
-2.17763e-05
-4.36053e-05
-2.52322e-05
-4.15829e-05
-2.82712e-05
-3.93802e-05
-3.0924e-05
-3.68862e-05
-3.31896e-05
-3.42776e-05
-3.5101e-05
-3.13765e-05
-3.6638e-05
-2.85848e-05
-3.79362e-05
-2.52802e-05
-3.88518e-05
-2.24976e-05
-4.04601e-05
-3.71131e-05
-4.06933e-05
-3.2795e-05
-4.02767e-05
-2.58016e-05
-3.97333e-05
-2.08628e-05
-3.93787e-05
-1.34894e-05
-3.87333e-05
-5.76646e-06
-3.81592e-05
-1.41044e-06
-3.67649e-05
-4.82516e-07
-3.65879e-05
5.94328e-06
1.47086e-06
-2.83076e-05
-3.90306e-06
-4.35853e-05
-7.72199e-06
-4.36364e-05
-1.14176e-05
-4.28927e-05
-1.48164e-05
-4.17906e-05
-1.80257e-05
-4.0396e-05
-2.09144e-05
-3.86941e-05
-2.35213e-05
-3.67733e-05
-2.58335e-05
-3.4574e-05
-2.78218e-05
-3.22893e-05
-2.95489e-05
-2.96493e-05
-3.09156e-05
-2.72182e-05
-3.20565e-05
-2.41393e-05
-3.28024e-05
-2.17518e-05
-3.4458e-05
-3.54575e-05
-3.54185e-05
-3.18345e-05
-3.55591e-05
-2.56609e-05
-3.56592e-05
-2.07626e-05
-3.42477e-05
-1.49009e-05
-3.04896e-05
-9.52451e-06
-3.01993e-05
-1.70078e-06
-2.9668e-05
-1.01384e-06
-2.94555e-05
5.73073e-06
-4.39606e-06
-2.35886e-05
-3.09859e-06
-4.04867e-05
-6.16473e-06
-4.05702e-05
-9.11562e-06
-3.99417e-05
-1.19069e-05
-3.89993e-05
-1.44904e-05
-3.78125e-05
-1.68367e-05
-3.63477e-05
-1.89255e-05
-3.46845e-05
-2.0728e-05
-3.27715e-05
-2.22651e-05
-3.07522e-05
-2.35144e-05
-2.84e-05
-2.45327e-05
-2.61999e-05
-2.55113e-05
-2.31607e-05
-2.61122e-05
-2.11509e-05
-2.88282e-05
-3.27416e-05
-2.93854e-05
-3.12774e-05
-2.96594e-05
-2.53869e-05
-2.93593e-05
-2.10627e-05
-2.84816e-05
-1.57786e-05
-2.75692e-05
-1.04369e-05
-2.61857e-05
-3.08428e-06
-2.58974e-05
-1.30214e-06
-2.17975e-05
1.63087e-06
3.12955e-06
-2.93231e-05
-2.39557e-06
-3.80911e-05
-4.76674e-06
-3.8199e-05
-7.07284e-06
-3.76356e-05