/*--------------------------------*- C++ -*----------------------------------*\
| =========                 |                                                 |
| \\      /  F ield         | foam-extend: Open Source CFD                    |
|  \\    /   O peration     | Version:     4.1                                |
|   \\  /    A nd           | Web:         http://www.foam-extend.org         |
|    \\/     M anipulation  |                                                 |
\*---------------------------------------------------------------------------*/
FoamFile
{
    version     2.0;
    format      ascii;
    class       volScalarField;
    location    "0.1";
    object      psi;
}
// * * * * * * * * * * * * * * * * * * * * * * * * * * * * * * * * * * * * * //

dimensions      [1 -1 -2 0 0 0 0];

internalField   nonuniform List<scalar> 
2268
(
2.57269e-08
-1.78452e-07
-1.1933e-06
-1.12601e-06
2.62741e-05
8.14918e-05
4.63748e-05
-0.00179026
-0.00207083
0.000871064
0.0149318
0.065432
0.186211
0.22407
0.252575
0.32826
0.497226
1.0999
2.93802
6.5157
8.17689
6.69387
2.31648
2.54418e-08
-1.82105e-07
-1.2e-06
-1.10848e-06
2.64665e-05
8.19273e-05
5.5796e-05
-0.00164931
-0.00259936
-0.00337755
0.00215279
0.0583824
0.179688
0.192331
0.218323
0.226093
-0.0180445
-2.1637
-8.20588
-11.7006
-7.6469
0.553109
1.47371
2.48425e-08
-1.88173e-07
-1.20346e-06
-1.02397e-06
2.7049e-05
8.24127e-05
6.55986e-05
-0.0014873
-0.00318615
-0.00520451
-0.00106483
0.0687836
0.176619
0.17148
0.158459
0.0328404
0.241197
0.852673
2.62136
5.9243
4.6212
2.95791
1.81158
2.42945e-08
-1.94165e-07
-1.20416e-06
-9.19992e-07
2.77528e-05
8.21596e-05
6.52774e-05
-0.00144971
-0.00357298
-0.00666516
0.000939115
0.097577
0.176325
0.182192
0.13736
-0.211857
-0.184071
0.271939
0.927903
0.220481
-0.111018
1.14794
1.65443
2.40391e-08
-1.98302e-07
-1.20577e-06
-8.57817e-07
2.8139e-05
8.0997e-05
5.18996e-05
-0.00156509
-0.00364241
-0.00647085
0.00592877
0.134016
0.181745
0.219146
0.103975
-0.451793
-0.54641
0.287833
2.05242
3.11411
2.59071
1.7951
1.64193
2.41911e-08
-2.00066e-07
-1.21039e-06
-8.77953e-07
2.78011e-05
8.07091e-05
4.67713e-05
-0.00165892
-0.00360111
-0.00631447
0.011052
0.165022
0.205731
0.250962
0.019839
-0.796113
-1.04063
-0.904019
-1.47629
-1.45332
-0.581663
1.03709
1.54188
2.472e-08
-2.00918e-07
-1.22782e-06
-1.00209e-06
2.67371e-05
8.37229e-05
7.22228e-05
-0.00172947
-0.00385403
-0.00697845
0.0179312
0.195078
0.235258
0.258593
-0.2059
-1.33582
-1.0838
-0.192403
0.963128
2.22526
1.45313
0.872929
1.43531
2.55096e-08
-2.02614e-07
-1.2555e-06
-1.16094e-06
2.55764e-05
8.92492e-05
0.000160739
-0.00153245
-0.00426141
-0.00806898
0.0277299
0.222649
0.271394
0.221494
-0.541992
-1.67213
-1.36895
-1.24265
-0.707692
-0.399794
0.502631
0.730245
1.4866
4.6731e-08
3.45223e-08
1.00959e-08
5.33308e-10
-3.58526e-10
-8.11181e-11
-2.75711e-12
9.0475e-13
1.08464e-13
-3.07277e-14
4.52149e-14
3.43238e-14
4.65469e-14
9.07672e-14
5.65656e-14
3.64199e-14
2.39239e-14
4.7349e-14
6.45768e-14
-4.69893e-08
9.09475e-09
1.43211e-08
5.29618e-09
6.03294e-10
-5.9751e-11
-1.81858e-11
-7.39336e-13
1.35026e-13
2.62902e-14
1.18177e-14
3.12823e-14
-1.78589e-14
6.56584e-14
6.74789e-14
-1.76629e-14
5.76386e-14
8.16567e-14
9.90014e-14
-3.15095e-07
-1.24387e-07
-2.45644e-08
3.57985e-09
2.3052e-09
2.237e-10
-1.86423e-11
-4.23529e-12
-6.24771e-14
6.87207e-14
1.00898e-13
2.67249e-14
2.243e-14
9.13775e-14
5.50052e-14
5.15382e-14
-3.68081e-14
3.38303e-14
9.63741e-14
-4.82689e-07
-1.71306e-07
-1.10616e-07
-2.507e-08
8.1127e-10
7.62849e-10
4.66136e-11
-5.47566e-12
-7.30037e-13
4.68072e-14
2.04578e-15
1.68116e-14
-2.51977e-14
9.06458e-14
1.01529e-13
-1.52962e-14
-1.1702e-14
-2.28774e-14
7.85886e-14
-3.05242e-08
5.75599e-07
5.33505e-08
-6.34811e-08
-1.18454e-08
4.40417e-10
1.87693e-10
5.08506e-12
-1.27195e-12
-5.8116e-14
9.58049e-14
8.36264e-14
-6.5417e-15
1.03849e-13
7.47667e-15
-1.54e-14
-2.39001e-14
6.16033e-14
6.28201e-14
9.81517e-08
1.54666e-06
1.1294e-06
7.25248e-08
-2.9046e-08
-2.91517e-09
2.08135e-10
3.31821e-11
-1.78461e-13
-1.87587e-13
3.9395e-14
3.35456e-14
-3.76714e-14
9.88573e-14
2.72568e-14
1.38421e-13
4.56983e-14
2.59186e-14
7.79011e-14
-9.70574e-06
-8.60006e-06
2.05818e-06
7.16038e-07
4.41474e-09
-9.23021e-09
-3.05453e-10
5.84161e-11
3.80797e-12
-1.37633e-13
-1.21898e-14
9.69641e-14
-4.28199e-16
7.56335e-14
1.51861e-13
2.45304e-14
2.51845e-14
-3.39287e-15
4.3417e-14
-3.80683e-05
-5.45855e-05
-5.08683e-06
1.50099e-06
1.9011e-07
-1.032e-08
-1.65707e-09
2.3079e-11
9.75381e-12
1.33687e-13
-1.76145e-14
1.05322e-13
1.02667e-13
-7.36566e-15
3.21901e-14
9.77903e-14
7.88573e-14
-2.33177e-15
6.52849e-14
2.68873e-08
-2.08342e-07
-1.28584e-06
-1.22251e-06
2.5405e-05
9.28976e-05
0.000216251
-0.00201607
-0.00519989
-0.00928463
0.0590676
0.26157
0.33427
0.162211
-0.877737
-1.30104
0.0750224
1.20154
1.185
0.634856
0.255956
0.322766
1.178
2.94264e-08
-2.28158e-07
-1.375e-06
-1.2928e-06
3.15552e-05
0.000104621
0.000178448
-0.00289635
-0.00740059
-0.0118414
0.137087
0.28585
0.486985
0.269629
-0.575154
0.240429
0.376253
0.309172
-0.121767
0.0402893
0.0644999
-0.0671658
0.742526
3.02765e-08
-2.66372e-07
-1.44792e-06
-1.05316e-06
3.53158e-05
0.000126089
0.000122091
-0.00366838
-0.00965892
-0.0130862
0.226262
0.340785
0.675773
0.0267107
-1.13272
0.31036
0.873935
0.594182
0.314643
0.119652
0.0305716
-0.112796
0.627929
-3.30525e-08
-4.29185e-07
-1.76097e-06
6.16153e-08
4.76203e-05
0.000147644
-6.53854e-05
-0.00435368
-0.012457
-0.00707235
0.334845
0.419775
0.855388
-0.119187
-0.0402943
0.503248
0.135486
-0.104476
-0.0773681
-0.0123984
-0.00781106
-0.0823676
0.419559
-7.23825e-07
-1.20311e-06
-2.82429e-06
6.55656e-07
6.02947e-05
0.000169805
-0.000301635
-0.00582896
-0.0147336
0.0101915
0.441607
0.509714
1.07584
-0.373817
0.100609
-0.144674
-0.0935321
-0.0897235
-0.0283101
-0.00745908
-0.0065323
-0.0473129
0.253026
-2.76379e-06
-3.12698e-06
-4.65792e-06
1.0645e-06
7.62157e-05
0.000199816
-0.000638759
-0.00758467
-0.0162401
0.0506601
0.507562
0.651933
1.21059
-0.229866
-0.396329
-0.453602
-0.136223
-0.0374134
-0.00762872
-0.000490541
-0.00174102
-0.0178613
0.034483
1.66918e-05
1.6426e-05
1.98273e-05
3.35123e-05
0.000132623
0.000277324
-0.000976001
-0.00970965
-0.0174792
0.109778
0.677216
0.717278
1.00472
-0.0843956
-0.953402
-0.544801
-0.111726
-0.00709921
0.00122843
0.000660989
-0.000472664
-0.00613254
-0.00759494
0.000203946
0.000219731
0.000242477
0.000294334
0.000465673
0.000695922
-0.000992754
-0.0117744
-0.0177313
0.188654
0.903574
0.850174
0.234391
-0.758935
-1.26734
-0.314068
-0.0343384
0.00709716
0.00230354
0.000230069
-0.000277083
-0.00193927
-0.00458602
0.00128502
0.00134271
0.00142829
0.00159489
0.00193834
0.00238099
-3.7547e-05
-0.0131339
-0.0208221
0.274911
1.11175
1.1533
-0.173885
-1.63267
-1.14652
-0.201724
0.0130113
0.00905957
0.00110834
-6.68573e-05
-0.000168848
-0.0013143
-0.00203784
0.00449924
0.00454894
0.00453775
0.00476981
0.00481909
0.00508235
-0.00095728
-0.017839
-0.0188846
0.352545
1.30616
1.37971
-0.542219
-1.80325
-0.935422
-0.0814241
0.0229936
0.00812609
0.000726582
-0.000165199
-8.11447e-05
-0.000421699
-0.00152631
0.00328874
0.00254544
0.00063292
-0.000849645
-0.00578682
-0.0109823
-0.0354236
-0.0718471
-0.0406918
0.402281
1.47298
1.2628
-1.45236
-1.70911
-0.860032
-0.105205
0.025003
0.00939768
0.000625132
-0.00022318
-5.88862e-05
-7.9043e-05
-0.000527138
-0.0605878
-0.0658987
-0.0764771
-0.0877427
-0.113511
-0.147612
-0.224856
-0.334698
0.000164771
0.555625
1.97341
1.2865
1.52183
-1.24625
-0.617833
-0.230056
0.00358961
0.0145927
0.00107677
-0.000316599
-6.58958e-05
-6.47714e-06
-7.65409e-05
-0.38519
-0.402729
-0.433533
-0.468506
-0.540346
-0.640127
-0.793875
-1.11055
-0.0584563
0.6153
1.77373
-0.608617
-0.729456
-1.15615
0.230948
-0.31349
-0.0539603
0.0132929
0.00309106
-0.000239325
-8.00964e-05
2.32463e-07
-4.87796e-06
-1.06553
-1.08855
-1.12305
-1.1532
-1.2399
-1.34811
-1.50934
-2.24679
-0.276671
0.111552
1.63807
-1.91461
-1.21491
1.25109
0.47036
-0.187787
-0.0777259
0.000630038
0.00348526
-2.14783e-05
-7.70332e-05
1.80954e-07
1.16117e-06
-0.850179
-0.835295
-0.796627
-0.708083
-0.674331
-0.585638
-0.56504
-1.51642
-0.896068
-0.607647
0.885195
4.50378
2.8533
1.41956
0.113646
-0.188463
-0.075639
0.00324947
0.00323252
1.26088e-05
-7.04899e-05
-1.85329e-06
1.28131e-06
1.20811
1.22109
1.22897
1.26695
1.22411
1.27929
1.25317
0.678807
1.04791
0.0710066
1.52361
1.52983
3.33523
-0.751852
-0.299237
-0.142074
-0.0282147
0.00452698
0.00206281
-5.08113e-05
-5.59985e-05
-9.57047e-07
1.08177e-06
0.425738
0.417709
0.380104
0.353481
0.306773
0.312378
0.313834
0.203207
0.473069
0.479944
1.09938
1.29645
0.475333
-0.419115
-0.150572
-0.0823214
-0.00524317
0.00434137
0.00112792
-0.000101986
-4.02295e-05
5.67036e-08
8.27726e-07
-0.238068
-0.237734
-0.240856
-0.238711
-0.24363
-0.238028
-0.231729
-0.259639
-0.232356
-0.183669
-0.069818
-0.103575
-0.329317
-0.201687
-0.0804375
-0.0373094
0.00261066
0.00246497
0.000790618
-9.13671e-05
-2.94941e-05
3.29961e-07
6.06793e-07
-0.223296
-0.220327
-0.216591
-0.211581
-0.208622
-0.206035
-0.206016
-0.215778
-0.235245
-0.241622
-0.196459
-0.188553
-0.168715
-0.111401
-0.0602599
-0.0243871
0.000803216
0.00158812
0.000465314
-6.70457e-05
-2.09337e-05
-2.15504e-08
4.50933e-07
-0.177213
-0.172604
-0.167197
-0.1636
-0.159284
-0.159333
-0.162486
-0.168765
-0.185933
-0.171536
-0.134728
-0.114901
-0.0869909
-0.0348878
-0.0313437
-0.0115184
0.00110646
0.00107485
0.00019727
-3.5733e-05
-1.29808e-05
-8.31089e-08
3.14191e-07
-0.015798
-0.0140824
-0.0124802
-0.0103122
-0.00946083
-0.00882504
-0.0106135
-0.0158197
-0.0312712
-0.0519705
-0.0530134
-0.0287995
-0.00825201
-0.00449848
-0.00336206
-0.00149543
0.000928449
0.000594862
4.32905e-05
-2.34379e-05
-7.06092e-06
1.71177e-07
2.03154e-07
0.0060347
0.00606841
0.00588429
0.00576306
0.00565954
0.00570156
0.00571832
0.00574488
0.00482438
0.00393376
0.00225507
0.00393924
0.00225897
-6.16536e-05
0.000492771
0.000656301
0.000419388
0.000269415
-1.78407e-05
-1.50272e-05
-2.35859e-06
3.67715e-07
1.27044e-07
0.00315262
0.00310178
0.00303495
0.00298085
0.00296917
0.0030258
0.00311342
0.00326881
0.00344142
0.00351204
0.00301643
0.00283284
0.00140678
0.000826588
0.000531402
0.000245158
0.000140947
9.29434e-06
-1.70683e-05
-5.94245e-06
2.40897e-08
2.78318e-07
5.14509e-08
0.000582125
0.000547465
0.000541359
0.00055551
0.000582388
0.000686883
0.000858113
0.00127315
0.00162241
0.001797
0.000983442
0.000427401
0.000140149
6.36896e-05
3.63309e-05
2.02573e-05
1.96866e-05
-1.50529e-05
-6.32041e-06
-9.73832e-07
3.57599e-07
1.18609e-07
3.29535e-09
-9.83231e-05
-9.88308e-05
-9.73643e-05
-9.57383e-05
-9.97732e-05
-0.000100599
-0.000114108
-8.21834e-05
-8.76199e-06
4.92811e-05
-4.39229e-05
-7.66284e-05
-6.02991e-05
-3.37681e-05
-2.12535e-05
-9.77426e-06
-5.37261e-06
-4.19915e-06
-5.32846e-07
3.31871e-07
1.47061e-07
1.6134e-08
-5.94895e-09
-4.49328e-05
-4.44654e-05
-4.45111e-05
-4.52146e-05
-4.74332e-05
-5.26176e-05
-5.83267e-05
-5.84917e-05
-6.19007e-05
-6.02343e-05
-5.57082e-05
-4.13014e-05
-2.52221e-05
-6.9697e-06
-2.27108e-06
-9.78929e-07
-9.23163e-07
-3.12467e-07
2.06767e-07
1.21067e-07
1.34277e-08
-6.5431e-09
-2.34406e-09
-2.25085e-06
-2.14402e-06
-2.37263e-06
-2.40779e-06
-3.13252e-06
-5.57412e-06
-1.23829e-05
-1.91204e-05
-2.01042e-05
-1.8378e-05
-1.26398e-05
-4.14376e-06
2.42365e-07
1.54394e-06
8.73057e-07
4.93795e-07
1.36469e-07
1.1715e-07
5.76813e-08
5.60427e-09
-5.27821e-09
-2.30974e-09
-1.42051e-10
1.01892e-06
1.02957e-06
1.02045e-06
1.09018e-06
1.11293e-06
1.25627e-06
9.35617e-07
5.95125e-07
3.67998e-08
-7.02059e-08
8.15408e-07
1.27248e-06
1.09621e-06
6.24239e-07
2.14923e-07
4.57055e-08
4.91358e-09
4.84105e-09
-2.33211e-09
-3.49433e-09
-1.3711e-09
-3.87202e-11
1.01043e-10
2.96802e-07
3.01101e-07
3.10411e-07
3.42977e-07
3.93461e-07
5.14804e-07
6.78811e-07
7.33214e-07
6.96136e-07
6.06189e-07
5.87997e-07
4.10923e-07
2.12719e-07
9.09783e-10
-2.87894e-08
-2.11814e-08
-1.05403e-08
-2.83502e-09
-1.19662e-09
-3.72005e-10
5.80785e-11
8.32828e-11
2.01795e-11
-2.28072e-09
-1.97406e-09
-1.01261e-09
3.07322e-09
7.56339e-09
2.37002e-08
6.53743e-08
1.09824e-07
1.35656e-07
1.15372e-07
5.8055e-08
1.29664e-08
-1.78383e-08
-2.29735e-08
-1.26743e-08
-4.40056e-09
-4.56525e-10
2.8763e-10
1.77931e-10
8.70203e-11
3.96776e-11
8.15387e-12
-1.6534e-12
-8.05566e-09
-8.28416e-09
-8.754e-09
-9.68079e-09
-1.10832e-08
-1.30721e-08
-1.37036e-08
-1.24701e-08
-1.04707e-08
-8.52164e-09
-1.10404e-08
-1.14937e-08
-8.96241e-09
-4.56586e-09
-3.03835e-10
5.49673e-10
4.35974e-10
1.91666e-10
3.64771e-11
3.48649e-12
-1.84999e-12
-1.9344e-12
-6.90715e-13
-1.60512e-09
-1.62625e-09
-1.70432e-09
-1.90629e-09
-2.22048e-09
-2.86641e-09
-3.80538e-09
-4.55382e-09
-4.63968e-09
-4.03062e-09
-3.14578e-09
-2.11354e-09
-6.86191e-10
3.41031e-10
3.95354e-10
2.19952e-10
6.49183e-11
-3.11486e-12
-9.78549e-12
-4.03662e-12
-1.02651e-12
-2.56344e-13
7.4254e-15
1.29006e-10
1.28279e-10
1.26109e-10
1.23209e-10
1.30784e-10
1.14265e-10
2.92974e-11
-9.51376e-11
-1.96404e-10
-1.75446e-10
-3.57789e-11
9.05601e-11
1.77274e-10
1.52939e-10
6.99933e-11
5.35212e-12
-1.04507e-11
-7.34761e-12
-2.32845e-12
-4.20428e-14
1.05747e-13
2.04086e-13
8.04774e-14
5.45774e-11
5.55836e-11
5.79206e-11
6.19751e-11
7.01071e-11
8.25357e-11
9.32552e-11
9.43041e-11
8.6612e-11
7.42777e-11
7.00663e-11
6.11867e-11
3.96174e-11
9.76211e-12
-4.45433e-12
-5.9043e-12
-3.09294e-12
-6.09191e-13
3.53333e-13
2.56472e-13
5.86262e-14
-1.35864e-14
-1.07587e-15
1.93596e-12
2.15054e-12
2.42911e-12
2.93305e-12
3.52591e-12
5.12267e-12
8.31162e-12
1.18106e-11
1.29794e-11
1.14296e-11
8.32806e-12
4.07647e-12
-5.87907e-14
-2.61603e-12
-2.08166e-12
-8.76339e-13
8.58761e-14
1.1453e-13
7.59259e-14
-1.7201e-14
8.00808e-15
-1.0539e-14
2.89521e-14
-9.69001e-13
-7.90176e-13
-8.98793e-13
-1.01854e-12
-1.14179e-12
-1.15205e-12
-1.34394e-12
-1.20338e-12
-8.55791e-13
-6.5362e-13
-9.10346e-13
-8.82942e-13
-8.69119e-13
-5.44818e-13
-8.55022e-14
1.03284e-13
8.87263e-14
5.466e-15
1.32941e-13
8.33856e-14
-1.96296e-14
1.1416e-13
1.32079e-13
-8.03754e-14
6.26858e-14
1.86104e-16
-5.67683e-14
-1.27521e-13
-2.68744e-13
-2.4267e-13
-2.64163e-13
-3.65669e-13
-3.03114e-13
-2.51485e-13
-7.5786e-14
-9.48308e-14
4.35844e-14
3.97679e-14
2.28218e-13
1.45378e-13
-3.02619e-14
-3.79323e-14
7.39849e-14
1.31406e-14
-7.67841e-14
1.0584e-13
4.58627e-14
1.23797e-13
1.03225e-13
5.91605e-14
-3.6604e-14
-2.35297e-14
1.48201e-13
1.56976e-13
2.97302e-14
-9.68534e-14
2.75727e-14
9.39423e-14
1.04532e-13
8.67453e-14
-6.83059e-14
-3.0367e-14
1.34374e-13
6.56405e-15
7.63741e-14
-1.90793e-14
1.68802e-13
1.03588e-13
7.69784e-14
-4.54738e-14
2.80979e-14
-5.91654e-14
8.69238e-14
1.42656e-13
1.07358e-13
-1.68273e-14
-2.48645e-15
2.6758e-14
-6.09911e-14
1.41649e-13
8.96234e-14
1.19855e-13
5.42047e-14
2.23027e-14
-6.92705e-14
1.28713e-14
1.00105e-13
1.41787e-13
8.17722e-14
1.24414e-13
-5.7669e-14
-2.77579e-14
-4.64263e-14
-1.47669e-14
-5.15306e-14
-5.43711e-14
1.18579e-13
8.53474e-14
4.71874e-15
9.34268e-15
7.2235e-14
-3.54889e-14
7.19137e-14
1.51432e-14
9.66977e-14
9.96997e-14
4.33985e-15
6.87556e-14
4.544e-14
5.13118e-14
7.47077e-14
1.74952e-13
7.47652e-15
-8.31067e-14
2.47933e-14
2.74911e-14
-4.49609e-14
4.74969e-14
4.78344e-14
1.75218e-14
6.49596e-14
3.17801e-14
3.8514e-14
1.11846e-13
5.58009e-14
1.24004e-13
5.58015e-14
-7.37739e-14
1.10242e-13
1.38696e-13
5.78214e-14
-5.96662e-14
1.51724e-13
8.01758e-14
1.16013e-13
4.2047e-14
1.3042e-13
1.85382e-15
1.02905e-13
-4.00025e-14
5.32225e-14
6.51025e-14
6.2755e-14
1.01217e-13
4.59485e-14
8.9149e-14
1.41045e-14
8.12077e-14
1.33343e-13
-2.45939e-14
7.72333e-14
-2.27613e-15
-1.09597e-14
-3.26519e-14
5.09763e-15
1.00015e-13
-3.6019e-14
1.25672e-13
-1.51091e-14
1.15617e-13
1.25035e-13
-0.580334
-0.183108
-0.00362989
0.00920676
0.134282
-0.20441
-0.0509716
0.00379686
0.265161
-0.11035
-0.0880275
-0.016434
0.27949
0.18693
0.0366143
0.0057047
0.253276
0.210279
0.163748
0.112399
0.162906
0.203575
0.151089
0.135833
0.0474419
0.145237
0.148434
0.134608
0.051198
0.100171
0.116246
0.114801
0.0324238
0.0434417
0.0537448
0.0510264
0.00538518
0.00648812
0.00951361
0.00656738
-0.000230488
-0.000311865
0.000127178
-0.000429345
-0.000157716
-0.00021146
-0.000197003
-0.000228065
-2.08201e-05
-2.95441e-05
-3.08301e-05
-2.92506e-05
-1.24925e-06
-2.2786e-06
-2.48611e-06
-2.01116e-06
3.57446e-07
-8.11394e-08
-1.635e-07
-1.04546e-07
3.586e-07
1.36726e-09
-5.81775e-08
-3.2696e-08
2.73916e-07
3.47497e-09
-4.48801e-08
-2.67303e-08
2.14137e-07
1.39584e-08
-3.23136e-08
-2.11628e-08
1.69532e-07
2.27716e-08
-1.97251e-08
-1.535e-08
1.2105e-07
1.84545e-08
-1.33652e-08
-1.08252e-08
7.40237e-08
6.62999e-09
-1.02763e-08
-7.30033e-09
2.251e-08
-6.31759e-09
-8.20449e-09
-4.03721e-09
-3.31642e-09
-8.69465e-09
-4.85569e-09
-1.38824e-09
-7.81887e-09
-4.76763e-09
-1.52783e-09
1.07326e-10
-3.46994e-09
-1.23959e-09
1.65032e-11
3.20481e-10
-3.87355e-10
1.68947e-10
2.11081e-10
1.24563e-10
1.49391e-10
1.23395e-10
5.62695e-11
8.92242e-12
5.33014e-11
1.79576e-11
-1.02895e-12
-6.49019e-12
1.1014e-12
-3.46314e-12
-3.2632e-12
-1.89436e-12
-1.96958e-12
-1.17661e-12
-3.98948e-13
6.06672e-15
-3.78553e-14
1.3015e-13
1.38204e-13
1.78056e-13
-2.24944e-14
3.34913e-14
-2.39384e-14
-3.16837e-14
5.52556e-14
8.41014e-14
7.02091e-14
1.54057e-13
-4.04207e-14
1.13239e-13
1.4562e-13
9.18652e-15
5.18893e-14
-1.40088e-14
-1.39042e-14
1.59914e-13
7.67692e-14
-7.15504e-14
1.45451e-14
-5.18389e-14
1.55725e-13
5.876e-14
5.32074e-14
1.09669e-13
6.27927e-14
9.59979e-14
1.17631e-13
9.27849e-14
8.00966e-14
-7.39691e-14
6.36233e-14
1.29533e-13
3.28327e-14
6.03074e-14
8.49577e-14
1.66778e-13
1.54089e-14
-6.51727e-14
-2.12433e-14
9.85471e-14
5.40123e-15
-3.82306e-14
-1.00456e-13
-9.19019e-14
0.00033439
-0.000139575
-3.93328e-05
-7.94485e-07
7.21528e-07
2.09332e-08
-4.23272e-09
-2.06592e-10
1.50422e-11
1.4309e-12
9.56773e-15
5.92816e-14
2.2018e-14
6.0346e-14
1.21406e-13
3.40938e-14
8.56779e-15
9.21335e-14
4.1763e-14
2.16609e-05
0.00029454
-0.000237467
-2.70078e-05
1.67508e-06
2.61802e-07
-1.75302e-09
-1.33317e-09
-3.20983e-11
3.97838e-12
3.59538e-13
-8.43736e-14
-1.26697e-14
1.12222e-13
1.81637e-14
2.81261e-13
-6.45082e-14
7.81222e-14
1.5398e-13
-0.000886147
0.00223598
-0.000661627
-0.000141885
-2.73691e-06
7.45912e-07
4.25294e-08
-1.50345e-09
-2.02475e-10
-1.61537e-12
7.08119e-13
5.76348e-14
-8.8489e-14
1.62918e-13
1.5466e-13
2.64991e-14
1.09063e-13
1.61998e-13
-5.28165e-14
0.0278292
0.0125775
-0.0014202
-0.000461933
-2.42922e-05
8.26485e-07
1.24184e-07
1.90621e-09
-2.63657e-10
-1.46718e-11
3.19202e-13
1.35704e-13
-2.3136e-15
1.5484e-13
2.66606e-14
8.15632e-14
-2.17008e-14
2.78831e-14
5.16509e-14
0.0915553
0.0268731
-0.000618091
-0.000800237
-7.78258e-05
-1.42976e-06
1.61993e-07
8.48234e-09
-2.06261e-10
-2.21833e-11
1.46797e-13
1.80228e-14
-4.68663e-15
3.44059e-15
4.30703e-15
2.17629e-14
1.14165e-13
1.04477e-14
6.68739e-14
0.0988475
0.0337566
0.00487854
-0.000815436
-0.000127516
-5.72686e-06
5.73234e-08
1.11874e-08
7.20594e-11
-1.61368e-11
-1.19439e-13
4.07716e-14
8.98968e-14
7.25577e-14
-7.7029e-15
4.3037e-14
1.12138e-13
4.63515e-14
-2.18048e-14
0.0944104
0.0227297
-0.000128119
-0.000791506
-7.19574e-05
-1.87743e-06
8.03367e-08
4.73514e-09
-8.2084e-11
-8.39345e-12
2.25335e-13
1.39737e-13
1.50457e-13
-1.58504e-14
3.40486e-14
6.81344e-14
1.3109e-13
9.08149e-14
-3.76531e-14
0.0602632
0.00225679
-0.0014203
-0.00027859
-2.3705e-05
-3.67946e-07
2.52987e-08
7.1932e-10
-4.22391e-11
-1.06989e-12
7.41229e-14
-1.91918e-13
2.70349e-17
1.2359e-13
6.58545e-14
5.18395e-14
8.55599e-14
4.53555e-15
1.16284e-13
0.00713635
-0.0029672
-0.000705958
-7.09237e-05
-2.50338e-06
7.6839e-08
5.81883e-09
-8.75827e-11
-1.02002e-11
2.35384e-13
1.04954e-13
6.6792e-14
-7.94711e-14
1.50704e-13
2.1478e-14
6.42269e-14
7.1181e-14
1.21612e-13
1.99617e-13
-0.00244454
-0.000980425
-0.000117472
-5.73216e-06
9.98401e-08
2.07196e-08
8.88446e-11
-4.05715e-11
-4.34842e-13
1.24684e-13
6.43336e-14
1.47447e-13
6.94987e-15
1.40345e-14
4.24933e-14
-2.89425e-14
3.78464e-14
-8.11979e-15
8.45747e-14
-0.000806796
-0.000139392
-8.56142e-06
8.43953e-08
4.1051e-08
1.06554e-09
-9.37888e-11
-3.68765e-12
2.0606e-13
-1.28631e-14
8.31586e-14
1.27515e-13
2.85139e-14
1.19436e-14
6.51545e-14
2.92655e-14
2.63028e-14
1.13446e-15
1.49358e-13
-0.000105537
-9.41357e-06
3.39955e-08
5.79857e-08
2.60072e-09
-1.36657e-10
-1.18594e-11
1.36154e-13
1.33072e-13
-3.60498e-14
6.26062e-14
2.25366e-14
2.23457e-14
-3.36443e-14
-3.4108e-14
2.16835e-14
7.55543e-14
-1.58755e-14
-1.31028e-15
-7.01061e-06
-6.30497e-08
5.65464e-08
3.7529e-09
-1.57011e-10
-2.28573e-11
-2.1176e-13
1.13554e-13
-2.07531e-14
3.50164e-14
6.03092e-14
1.06549e-13
8.37549e-14
1.86907e-13
3.24068e-14
-2.19387e-14
5.20353e-14
1.47217e-13
4.30623e-14
-1.50074e-07
3.955e-08
3.85724e-09
-1.30951e-10
-3.03305e-11
-7.18435e-13
2.11722e-13
3.65174e-14
7.37161e-14
-5.56124e-14
6.60944e-14
6.95105e-14
-4.92415e-14
6.16198e-15
-8.23693e-14
8.8098e-14
7.44184e-14
3.56608e-14
-6.0746e-14
1.18124e-08
3.47164e-09
2.14883e-12
-2.95486e-11
-2.33947e-12
-2.73276e-14
1.39805e-13
1.09067e-14
3.29495e-14
1.02627e-13
1.02369e-13
9.06659e-14
1.42606e-14
-2.82612e-16
3.46044e-14
5.06804e-14
2.02643e-14
1.64118e-14
1.24087e-13
2.44424e-10
7.18334e-10
3.69522e-11
-6.56164e-12
-1.01594e-12
5.60932e-14
1.2709e-13
8.0339e-15
5.38936e-14
1.24218e-13
5.96673e-14
1.0478e-13
1.19584e-13
-1.96088e-14
4.12356e-14
8.13651e-14
6.1046e-14
3.36969e-14
1.42528e-13
-8.54786e-10
5.82868e-10
4.66332e-11
-5.51595e-12
-7.89118e-13
1.22485e-13
1.6008e-13
2.57504e-14
1.25178e-13
5.39801e-14
-5.58681e-14
-1.90554e-15
9.76893e-14
7.97478e-14
1.05938e-13
-5.30419e-14
1.1348e-13
-2.44393e-14
3.68665e-14
-1.02004e-09
4.41446e-10
4.15107e-11
-4.33637e-12
-6.4551e-13
1.62302e-13
7.54978e-14
1.13821e-13
-3.9892e-15
4.53863e-14
4.64683e-14
1.15424e-13
3.66362e-14
8.22212e-14
1.40188e-13
7.5538e-14
1.14232e-13
7.24363e-14
3.79833e-15
-1.0953e-09
2.91446e-10
3.35516e-11
-2.5875e-12
-5.50026e-13
3.66059e-15
-3.19789e-15
3.56213e-14
1.05274e-13
5.52586e-14
1.39195e-13
-3.48588e-14
1.23295e-13
5.49806e-14
1.11555e-13
8.08295e-14
8.80412e-14
4.49701e-14
1.01451e-13
-8.44386e-10
2.03024e-10
2.4324e-11
-1.70166e-12
-2.94572e-13
5.31211e-14
-4.41057e-14
4.07565e-14
2.69949e-14
-1.82497e-14
7.31945e-14
-1.877e-14
6.84512e-14
4.61333e-14
8.70434e-14
1.71832e-14
3.54028e-14
-1.07099e-14
1.45363e-13
-4.21435e-10
1.45304e-10
1.47306e-11
-1.43287e-12
-9.53555e-14
1.50632e-13
-3.35511e-14
1.11858e-13
5.6494e-14
1.1747e-13
1.04534e-13
-2.37417e-14
8.83807e-14
6.46662e-14
1.53141e-13
6.00717e-14
7.94079e-14
1.45549e-13
1.29928e-14
1.14098e-11
1.05808e-10
5.72173e-12
-1.2341e-12
-3.23602e-14
4.05057e-14
-1.10249e-14
3.66806e-14
4.13549e-14
1.4155e-13
1.84189e-14
-5.4948e-15
8.84475e-14
2.46479e-14
-8.87702e-14
1.82174e-14
5.19883e-14
1.60351e-13
1.0908e-13
2.15755e-10
5.76219e-11
-4.65441e-13
-8.57056e-13
1.90137e-14
9.29259e-14
6.34753e-14
4.29012e-14
1.89633e-13
1.09107e-13
-2.77959e-14
3.1059e-14
8.97602e-14
5.69223e-14
-1.33402e-13
1.8396e-14
1.01423e-13
-2.06832e-14
8.78424e-14
1.89435e-10
1.67484e-11
-2.59236e-12
-2.184e-13
3.36908e-14
5.71929e-14
4.1412e-14
1.60123e-14
3.11778e-14
7.24505e-14
4.49924e-14
7.88142e-14
3.59738e-14
6.71718e-14
8.15139e-14
-8.03497e-16
3.76431e-14
6.83537e-15
7.18204e-14
7.50194e-11
-3.04291e-12
-1.64716e-12
-2.69643e-14
6.8977e-14
6.19711e-14
-1.60193e-14
-6.99347e-15
3.48648e-14
1.37461e-13
2.23791e-14
2.31357e-13
8.91804e-14
-3.51168e-14
1.62985e-13
3.74378e-14
4.27049e-14
4.49279e-14
1.8167e-13
6.7129e-12
-4.07235e-12
-3.80807e-13
1.62811e-13
1.27233e-13
1.31043e-13
5.96744e-14
-5.62001e-14
8.20197e-14
8.34884e-14
8.74136e-14
3.74967e-14
-1.36352e-14
1.51738e-14
7.7152e-14
8.48774e-14
-1.15648e-13
7.88562e-14
1.81257e-14
-6.12085e-12
-9.77643e-13
1.31089e-13
3.99851e-14
5.66223e-14
-1.88581e-15
-2.47273e-14
6.23537e-14
8.34094e-14
1.30611e-13
7.09253e-14
-2.09738e-14
2.47597e-14
2.64226e-15
4.35978e-14
1.36928e-13
5.15347e-14
3.52195e-14
3.05729e-14
-1.87395e-12
9.31026e-14
1.17499e-13
2.34623e-14
1.82649e-14
1.01465e-13
3.27935e-14
3.5103e-14
6.02994e-14
1.2131e-13
1.58712e-14
1.42679e-13
4.16036e-14
1.2363e-13
3.54163e-14
1.23456e-13
6.39886e-14
3.29791e-14
-5.73668e-14
3.72549e-14
9.48877e-14
2.77844e-14
1.24213e-13
7.08709e-14
2.80568e-14
2.97591e-14
3.52988e-14
5.71284e-14
-1.63345e-14
3.90746e-14
1.56744e-14
3.72166e-14
1.01392e-14
-6.74042e-14
2.92968e-14
4.10642e-14
-1.28092e-14
2.4095e-14
1.71623e-13
1.03976e-13
5.8281e-15
6.61191e-14
9.20927e-16
1.16063e-13
6.43194e-16
1.14225e-13
7.35279e-14
7.62596e-14
1.01716e-13
1.05199e-13
4.027e-15
2.83072e-14
-5.4049e-14
1.22422e-13
9.49087e-14
1.53784e-13
4.86817e-14
1.12474e-14
-1.6324e-15
7.71945e-14
1.24948e-13
1.4859e-14
1.41446e-13
7.65771e-14
1.58609e-14
6.74321e-14
5.31295e-14
6.9193e-14
-1.00107e-14
-2.76275e-14
9.18913e-14
3.10225e-14
1.07521e-13
1.24719e-13
-3.76606e-14
1.13255e-14
5.33554e-14
8.58584e-14
1.2299e-13
-2.35857e-14
1.29889e-13
-8.73985e-14
1.07023e-14
-1.83692e-14
-4.83661e-14
5.67194e-14
1.4345e-13
7.19898e-14
6.19345e-14
5.25635e-14
3.95468e-15
3.20736e-14
1.03346e-13
1.07392e-13
-5.29282e-14
1.14967e-13
-9.82369e-15
1.61851e-13
3.57365e-14
7.25924e-14
1.21512e-13
6.4659e-14
1.39677e-13
1.69771e-13
5.28547e-14
5.50668e-14
9.25663e-14
6.0466e-14
1.32619e-13
1.77088e-13
8.6744e-14
9.16311e-14
4.99911e-14
8.7022e-14
6.51295e-14
3.04492e-14
1.29159e-13
-7.75186e-14
5.30446e-14
9.99596e-14
3.63987e-14
1.75824e-13
1.94922e-13
-3.2829e-14
1.56545e-13
1.40826e-13
9.53006e-14
1.95401e-14
7.72331e-15
1.41666e-13
6.69435e-14
1.0482e-13
-7.58668e-15
5.40566e-14
5.42856e-15
3.66556e-14
1.1376e-14
1.67513e-13
-2.04078e-14
2.90592e-14
9.50864e-14
-1.13998e-16
2.57849e-14
1.54416e-13
9.54442e-15
5.73022e-14
3.6242e-14
8.21267e-14
7.6924e-14
8.98817e-14
1.48044e-14
1.56734e-13
7.27832e-14
2.86426e-14
5.65406e-14
1.16408e-14
2.861e-14
6.83381e-14
1.52005e-13
1.25119e-13
6.3668e-15
8.94949e-14
2.21973e-14
1.032e-13
6.38149e-14
3.66092e-14
7.98044e-14
9.46856e-14
1.99515e-13
5.9687e-14
4.69406e-15
1.15156e-13
1.26295e-13
4.72405e-15
5.30129e-14
6.72955e-14
3.28231e-14
1.99787e-14
3.57503e-14
1.0338e-14
3.35497e-14
-3.15622e-14
4.64304e-14
5.00404e-14
1.77367e-14
1.18413e-13
3.06395e-14
1.92233e-15
1.60363e-14
-2.91857e-14
2.25636e-14
2.86229e-14
9.93764e-14
8.68348e-15
4.50312e-14
-4.95116e-14
1.19898e-13
-3.75806e-14
1.30621e-13
-6.4226e-14
1.3355e-14
8.26897e-14
9.55882e-14
5.76427e-14
5.89848e-14
1.76092e-13
1.44163e-13
1.51089e-13
7.35429e-15
1.53036e-13
-2.24447e-15
4.40118e-14
9.05767e-14
7.68177e-14
5.41022e-14
8.18041e-14
6.33364e-14
6.66005e-14
-8.03757e-15
8.09432e-14
6.43457e-14
8.89316e-14
-5.03574e-15
3.32941e-14
4.61646e-14
-9.8535e-14
1.51674e-13
-3.81441e-14
7.79827e-15
-2.03157e-14
1.1258e-13
1.2786e-13
4.70203e-15
1.21253e-13
-2.3256e-14
3.63113e-14
9.20973e-14
3.75618e-14
1.57517e-14
8.94772e-14
2.30351e-14
-5.47486e-14
9.08471e-14
1.28076e-13
6.98041e-14
-1.95598e-14
6.73129e-14
2.46687e-14
-4.49816e-14
6.18391e-14
-2.53525e-14
4.28112e-14
6.87691e-14
4.79392e-14
-4.20812e-14
3.92108e-14
1.59452e-14
4.47166e-14
9.25762e-14
1.532e-13
-3.90142e-14
-1.13656e-14
-2.79555e-14
1.00781e-13
1.24774e-13
7.16325e-14
1.16703e-13
9.24702e-14
1.42736e-13
3.86841e-15
1.26106e-14
-4.71624e-15
4.51924e-14
-5.90431e-14
7.37927e-14
5.23532e-14
8.56995e-14
1.53466e-13
1.06608e-13
-1.0726e-13
6.65537e-14
1.74417e-13
-3.71216e-14
3.54005e-14
9.70345e-14
)
;

boundaryField
{
    leftWall
    {
        type            zeroGradient;
    }
    rightWall
    {
        type            zeroGradient;
    }
    lowerWall
    {
        type            zeroGradient;
    }
    atmosphere
    {
        type            zeroGradient;
    }
    defaultFaces
    {
        type            empty;
    }
}


// ************************************************************************* //
