/*--------------------------------*- C++ -*----------------------------------*\
| =========                 |                                                 |
| \\      /  F ield         | foam-extend: Open Source CFD                    |
|  \\    /   O peration     | Version:     4.1                                |
|   \\  /    A nd           | Web:         http://www.foam-extend.org         |
|    \\/     M anipulation  |                                                 |
\*---------------------------------------------------------------------------*/
FoamFile
{
    version     2.0;
    format      ascii;
    class       volVectorField;
    location    "0.1";
    object      U;
}
// * * * * * * * * * * * * * * * * * * * * * * * * * * * * * * * * * * * * * //

dimensions      [0 1 -1 0 0 0 0];

internalField   nonuniform List<vector> 
2268
(
(0.0505876 -0.0101252 0)
(0.118278 -0.00989068 0)
(0.221891 -0.0107477 0)
(0.291923 -0.0093019 0)
(0.390352 -0.0121065 0)
(0.482092 -0.00829157 0)
(0.560464 -0.0136137 0)
(0.652437 -0.004748 0)
(0.754259 -0.0211864 0)
(0.778657 0.0393745 0)
(0.68867 -0.116318 0)
(0.708426 -0.0643577 0)
(0.811675 -0.0294515 0)
(0.860972 -0.0321313 0)
(0.972691 -0.0628009 0)
(1.19604 0.0227366 0)
(1.32244 -0.152006 0)
(1.58235 -0.145753 0)
(1.67475 -0.170007 0)
(1.7915 -0.176366 0)
(1.90843 -0.172776 0)
(1.98843 0.00390992 0)
(2.18429 0.342648 0)
(0.0507873 -0.0303234 0)
(0.118323 -0.0297132 0)
(0.222624 -0.032215 0)
(0.292099 -0.0283312 0)
(0.391696 -0.0359524 0)
(0.482015 -0.0291043 0)
(0.566932 -0.0295755 0)
(0.639511 -0.0390654 0)
(0.794198 -0.017566 0)
(0.732455 -0.0278237 0)
(0.673721 -0.139462 0)
(0.726179 -0.062455 0)
(0.813135 -0.0443427 0)
(0.864922 -0.054614 0)
(1.03791 -0.0877718 0)
(1.15639 -0.166993 0)
(1.35316 -0.0109593 0)
(1.38179 0.00222764 0)
(0.738003 0.00599775 0)
(0.395406 0.0175952 0)
(-0.0953054 0.184302 0)
(0.657054 0.543232 0)
(1.42651 0.707259 0)
(0.0509214 -0.0506852 0)
(0.117805 -0.0496485 0)
(0.222876 -0.053721 0)
(0.291124 -0.0470939 0)
(0.390633 -0.0597625 0)
(0.487331 -0.0469713 0)
(0.551621 -0.0533183 0)
(0.669161 -0.0612933 0)
(0.787955 -0.0447649 0)
(0.691319 -0.22652 0)
(0.655378 -0.166499 0)
(0.718276 -0.110694 0)
(0.788274 -0.0853872 0)
(0.861205 -0.129102 0)
(1.04546 -0.181519 0)
(1.22315 -0.199918 0)
(1.42843 0.0999597 0)
(1.53583 0.0269927 0)
(1.62329 0.0608346 0)
(1.71586 0.00281542 0)
(2.0615 -0.017998 0)
(1.81511 0.20662 0)
(1.51049 0.931393 0)
(0.0511744 -0.0706403 0)
(0.117124 -0.0694993 0)
(0.223527 -0.0750214 0)
(0.2898 -0.065839 0)
(0.391251 -0.0858945 0)
(0.488145 -0.0642447 0)
(0.548267 -0.0761082 0)
(0.706999 -0.100415 0)
(0.66822 -0.102673 0)
(0.624014 -0.240533 0)
(0.637092 -0.180431 0)
(0.704857 -0.134273 0)
(0.7908 -0.116333 0)
(0.897176 -0.191424 0)
(1.10982 -0.233215 0)
(1.20395 -0.193263 0)
(1.33787 -0.0522785 0)
(1.39689 -0.0534938 0)
(1.35515 -0.0376173 0)
(1.14486 -0.0510427 0)
(0.831154 0.2055 0)
(0.943399 0.880911 0)
(1.43461 1.39814 0)
(0.0513337 -0.0911576 0)
(0.116093 -0.0896184 0)
(0.224218 -0.0962891 0)
(0.286651 -0.0848271 0)
(0.393538 -0.1088 0)
(0.483243 -0.0815971 0)
(0.558989 -0.113175 0)
(0.702678 -0.0787791 0)
(0.625033 -0.255931 0)
(0.587642 -0.243418 0)
(0.634402 -0.203726 0)
(0.687623 -0.192089 0)
(0.801968 -0.167628 0)
(0.918988 -0.270304 0)
(1.10057 -0.305988 0)
(1.21323 -0.260373 0)
(1.27994 -0.0853184 0)
(1.36826 0.00827039 0)
(1.41781 0.108058 0)
(1.57507 0.106184 0)
(1.71648 0.325944 0)
(1.07614 1.13392 0)
(1.03832 1.70683 0)
(0.0517314 -0.110414 0)
(0.115136 -0.10963 0)
(0.22532 -0.117023 0)
(0.285277 -0.103709 0)
(0.395706 -0.13651 0)
(0.476096 -0.100925 0)
(0.609011 -0.144914 0)
(0.576268 -0.146198 0)
(0.538717 -0.283401 0)
(0.567268 -0.265306 0)
(0.638301 -0.224952 0)
(0.704715 -0.227898 0)
(0.826851 -0.227065 0)
(0.957194 -0.342354 0)
(1.10653 -0.35832 0)
(1.1713 -0.269106 0)
(1.20502 -0.0808943 0)
(1.20461 -0.0222899 0)
(1.19385 0.00676861 0)
(1.11056 0.0220647 0)
(1.23722 0.324974 0)
(0.736857 1.39192 0)
(0.665826 2.79752 0)
(0.0515353 -0.131606 0)
(0.113496 -0.129993 0)
(0.226921 -0.137911 0)
(0.281896 -0.124443 0)
(0.397963 -0.156535 0)
(0.482863 -0.143817 0)
(0.560349 -0.119885 0)
(0.536857 -0.289696 0)
(0.51332 -0.290319 0)
(0.564593 -0.29299 0)
(0.638359 -0.269046 0)
(0.716376 -0.278374 0)
(0.843531 -0.281553 0)
(0.943535 -0.42039 0)
(1.05693 -0.40884 0)
(1.09814 -0.300075 0)
(1.13246 -0.195394 0)
(1.28224 -0.0111214 0)
(1.46557 0.0984524 0)
(1.78958 0.250462 0)
(2.01909 0.739397 0)
(0.952252 1.468 0)
(0.612244 3.71065 0)
(0.0522249 -0.148152 0)
(0.113051 -0.149827 0)
(0.230091 -0.158816 0)
(0.28263 -0.152684 0)
(0.392093 -0.200555 0)
(0.50974 -0.115955 0)
(0.449912 -0.211596 0)
(0.482702 -0.325425 0)
(0.506196 -0.304452 0)
(0.565949 -0.32689 0)
(0.644552 -0.296386 0)
(0.75223 -0.33865 0)
(0.849658 -0.3054 0)
(0.90312 -0.450772 0)
(1.01045 -0.446912 0)
(1.04437 -0.311545 0)
(1.09156 -0.262501 0)
(1.21313 -0.141378 0)
(1.23163 -0.0914295 0)
(1.1759 0.136103 0)
(1.75758 0.903281 0)
(1.12066 1.5142 0)
(0.713908 4.57865 0)
(-0.0715839 0.0512468 0)
(-0.189763 0.0491337 0)
(-0.274237 0.0124218 0)
(-0.294719 0.000876377 0)
(-0.263678 -0.0068557 0)
(-0.23991 -0.011413 0)
(-0.216119 -0.0125935 0)
(-0.186628 -0.0127544 0)
(-0.164537 -0.0121934 0)
(-0.126791 -0.0109538 0)
(-0.110335 -0.00512016 0)
(-0.0904525 -0.00493396 0)
(-0.0616666 -0.00246542 0)
(-0.0455242 -0.00443217 0)
(-0.0296711 -0.00196614 0)
(-0.0197778 -0.00164823 0)
(-0.0112511 -0.00120699 0)
(-0.00639922 -0.000968977 0)
(-0.00202185 -0.000775424 0)
(-0.0691228 0.155318 0)
(-0.204317 0.0872729 0)
(-0.295495 0.0367537 0)
(-0.300184 -0.0033259 0)
(-0.264469 -0.0205393 0)
(-0.237267 -0.0329362 0)
(-0.211642 -0.0376533 0)
(-0.181318 -0.0380162 0)
(-0.158611 -0.0365768 0)
(-0.118768 -0.0295447 0)
(-0.102753 -0.0240822 0)
(-0.0839547 -0.0105363 0)
(-0.0502867 -0.0148716 0)
(-0.0426556 -0.0102287 0)
(-0.0238878 -0.00635719 0)
(-0.0165376 -0.00449376 0)
(-0.00896803 -0.00321822 0)
(-0.0050342 -0.00254079 0)
(-0.00154809 -0.00210376 0)
(-0.0984057 0.26163 0)
(-0.237469 0.158293 0)
(-0.313513 0.054553 0)
(-0.317164 -0.0100375 0)
(-0.272832 -0.0375761 0)
(-0.242432 -0.0585857 0)
(-0.213332 -0.0640334 0)
(-0.180992 -0.0608573 0)
(-0.155853 -0.0586232 0)
(-0.116128 -0.0497118 0)
(-0.0969163 -0.0407864 0)
(-0.0867416 -0.0324335 0)
(-0.0470498 -0.0253288 0)
(-0.0367849 -0.014485 0)
(-0.0219632 -0.0101568 0)
(-0.0154149 -0.00697719 0)
(-0.00836142 -0.00483877 0)
(-0.00469499 -0.0038746 0)
(-0.0014192 -0.00339884 0)
(-0.1057 0.422764 0)
(-0.297332 0.209409 0)
(-0.369287 0.0703502 0)
(-0.340133 -0.0172383 0)
(-0.286851 -0.0572877 0)
(-0.249202 -0.0901169 0)
(-0.212788 -0.0950523 0)
(-0.179472 -0.0853952 0)
(-0.152953 -0.0825511 0)
(-0.111921 -0.059675 0)
(-0.0933746 -0.0812665 0)
(-0.0798584 -0.0296585 0)
(-0.0417448 -0.0299744 0)
(-0.0360509 -0.0180332 0)
(-0.0196944 -0.0131952 0)
(-0.0141255 -0.00911951 0)
(-0.00757964 -0.00647289 0)
(-0.00435212 -0.00512316 0)
(-0.00129956 -0.0046993 0)
(-0.174321 0.597101 0)
(-0.38307 0.237923 0)
(-0.41502 0.0739005 0)
(-0.372522 -0.0450524 0)
(-0.306717 -0.0941869 0)
(-0.259786 -0.124906 0)
(-0.211261 -0.122827 0)
(-0.176879 -0.117433 0)
(-0.143613 -0.0980045 0)
(-0.116888 -0.0984596 0)
(-0.0857819 -0.0746532 0)
(-0.0564046 -0.0405511 0)
(-0.0432779 -0.0390225 0)
(-0.0335262 -0.0233715 0)
(-0.017829 -0.0168243 0)
(-0.0125101 -0.011368 0)
(-0.00665603 -0.00836448 0)
(-0.00389278 -0.00625413 0)
(-0.00119074 -0.00574455 0)
(-0.261439 0.846723 0)
(-0.509445 0.291678 0)
(-0.495193 0.0744009 0)
(-0.415913 -0.0512169 0)
(-0.325637 -0.102507 0)
(-0.262004 -0.15826 0)
(-0.209688 -0.164654 0)
(-0.170223 -0.147897 0)
(-0.143977 -0.149422 0)
(-0.100808 -0.0926588 0)
(-0.0718938 -0.0674635 0)
(-0.062005 -0.0575407 0)
(-0.0310428 -0.0438957 0)
(-0.0277757 -0.0262594 0)
(-0.0146406 -0.0197192 0)
(-0.0105236 -0.0136687 0)
(-0.00540533 -0.0102136 0)
(-0.00317775 -0.00737519 0)
(-0.00102162 -0.00656789 0)
(-0.339937 1.28715 0)
(-0.683652 0.345329 0)
(-0.563269 0.0242872 0)
(-0.472952 -0.158958 0)
(-0.364045 -0.197148 0)
(-0.29017 -0.216985 0)
(-0.20745 -0.211818 0)
(-0.175053 -0.170014 0)
(-0.117572 -0.129905 0)
(-0.0817477 -0.092378 0)
(-0.0741674 -0.100646 0)
(-0.0466617 -0.0629231 0)
(-0.0296953 -0.0484925 0)
(-0.0222184 -0.0306848 0)
(-0.0123674 -0.0218995 0)
(-0.0084711 -0.0156398 0)
(-0.00398356 -0.0113786 0)
(-0.00226882 -0.00841761 0)
(-0.00077298 -0.00719001 0)
(-0.522855 1.30315 0)
(-1.07617 0.373918 0)
(-0.707126 -0.0174419 0)
(-0.556549 -0.243398 0)
(-0.369666 -0.270253 0)
(-0.282274 -0.266176 0)
(-0.195421 -0.246394 0)
(-0.138073 -0.199639 0)
(-0.115333 -0.129069 0)
(-0.08712 -0.139522 0)
(-0.0603294 -0.104489 0)
(-0.0403847 -0.0658533 0)
(-0.0175036 -0.0520109 0)
(-0.0157485 -0.0318404 0)
(-0.00821316 -0.0240692 0)
(-0.00605018 -0.0165751 0)
(-0.00233562 -0.011999 0)
(-0.0013094 -0.00899911 0)
(-0.00041194 -0.00755752 0)
(0.0493513 -0.184655 0)
(0.112314 -0.182378 0)
(0.220092 -0.197569 0)
(0.269875 -0.149584 0)
(0.417779 -0.215892 0)
(0.388947 -0.245109 0)
(0.395635 -0.312246 0)
(0.47019 -0.333997 0)
(0.497805 -0.342113 0)
(0.572939 -0.370605 0)
(0.631121 -0.397059 0)
(0.788162 -0.39211 0)
(0.803455 -0.474005 0)
(0.841963 -0.57407 0)
(0.950371 -0.52668 0)
(0.964097 -0.348051 0)
(1.05528 -0.324569 0)
(1.30535 -0.251594 0)
(1.3917 0.0190908 0)
(1.50144 0.369467 0)
(1.83766 1.40777 0)
(1.4926 1.71612 0)
(0.932786 4.59196 0)
(0.0532659 -0.21544 0)
(0.106217 -0.227509 0)
(0.254995 -0.225264 0)
(0.247262 -0.280969 0)
(0.269579 -0.271533 0)
(0.336775 -0.35723 0)
(0.399221 -0.335679 0)
(0.422694 -0.379317 0)
(0.486705 -0.397386 0)
(0.52665 -0.43937 0)
(0.605319 -0.450301 0)
(0.652048 -0.511984 0)
(0.791886 -0.68207 0)
(0.855347 -0.665932 0)
(0.913504 -0.552292 0)
(0.889399 -0.480539 0)
(0.917823 -0.354864 0)
(0.998642 -0.273263 0)
(0.930551 -0.0508597 0)
(1.22912 0.651497 0)
(2.27156 1.97805 0)
(1.35223 1.47449 0)
(1.3928 4.84416 0)
(0.0355814 -0.268204 0)
(0.0837549 -0.285933 0)
(0.156476 -0.279076 0)
(0.211653 -0.358845 0)
(0.259714 -0.335602 0)
(0.319659 -0.367666 0)
(0.347678 -0.395021 0)
(0.410111 -0.42732 0)
(0.457722 -0.453353 0)
(0.50402 -0.49314 0)
(0.56919 -0.507652 0)
(0.613018 -0.584658 0)
(0.74122 -0.718035 0)
(0.74014 -0.693464 0)
(0.725834 -0.542646 0)
(0.800421 -0.548713 0)
(1.01049 -0.519278 0)
(1.10218 -0.5134 0)
(1.27176 -0.349952 0)
(1.22064 0.310246 0)
(2.10136 1.72374 0)
(0.961865 0.837395 0)
(1.62833 5.21801 0)
(0.0352822 -0.336135 0)
(0.0797333 -0.345891 0)
(0.148887 -0.351676 0)
(0.192079 -0.373976 0)
(0.234942 -0.377744 0)
(0.285337 -0.429127 0)
(0.336171 -0.433833 0)
(0.369645 -0.474136 0)
(0.428927 -0.499228 0)
(0.454835 -0.542249 0)
(0.525295 -0.565508 0)
(0.55401 -0.678069 0)
(0.686563 -0.790801 0)
(0.658642 -0.703972 0)
(0.643265 -0.567739 0)
(0.757579 -0.498786 0)
(0.779362 -0.498105 0)
(0.738026 -0.330967 0)
(0.674785 0.213292 0)
(0.593947 0.951782 0)
(1.58837 1.71274 0)
(1.01893 0.666291 0)
(2.15589 5.34149 0)
(0.0263243 -0.384539 0)
(0.0731342 -0.39597 0)
(0.124284 -0.395885 0)
(0.168717 -0.431078 0)
(0.219766 -0.43667 0)
(0.264176 -0.462617 0)
(0.30373 -0.483072 0)
(0.344574 -0.517864 0)
(0.394291 -0.543966 0)
(0.419845 -0.582379 0)
(0.476004 -0.611104 0)
(0.505747 -0.751038 0)
(0.614143 -0.823443 0)
(0.548822 -0.681467 0)
(0.563922 -0.581667 0)
(0.606741 -0.601084 0)
(0.670475 -0.571153 0)
(0.546126 -0.402925 0)
(0.451756 0.306158 0)
(-0.0606302 0.846469 0)
(1.13315 1.52586 0)
(-0.177228 0.580764 0)
(2.49835 4.99252 0)
(0.0247914 -0.436702 0)
(0.0672481 -0.443036 0)
(0.114742 -0.449945 0)
(0.158786 -0.466178 0)
(0.195598 -0.475571 0)
(0.239874 -0.509085 0)
(0.279545 -0.518546 0)
(0.31383 -0.559947 0)
(0.359976 -0.579566 0)
(0.371654 -0.612814 0)
(0.416148 -0.654152 0)
(0.439406 -0.815638 0)
(0.522626 -0.838174 0)
(0.459041 -0.665987 0)
(0.493284 -0.645022 0)
(0.527349 -0.645818 0)
(0.577657 -0.721951 0)
(0.453807 -0.265174 0)
(0.0904616 0.492216 0)
(0.0635258 0.680913 0)
(0.733671 1.03401 0)
(0.501893 0.537487 0)
(1.82799 3.48411 0)
(0.0202133 -0.477683 0)
(0.0605556 -0.484838 0)
(0.10024 -0.490447 0)
(0.140415 -0.509903 0)
(0.179179 -0.521539 0)
(0.220592 -0.545054 0)
(0.252543 -0.559738 0)
(0.294868 -0.595547 0)
(0.322501 -0.605875 0)
(0.323493 -0.630561 0)
(0.351506 -0.683347 0)
(0.367909 -0.85641 0)
(0.431042 -0.829165 0)
(0.367039 -0.642115 0)
(0.392071 -0.641446 0)
(0.471149 -0.612401 0)
(0.243232 -0.0690386 0)
(-0.189772 0.327328 0)
(-0.0258268 0.460674 0)
(0.213496 0.421963 0)
(0.515893 0.428872 0)
(1.03181 0.0276103 0)
(0.720481 1.11623 0)
(0.0182295 -0.51775 0)
(0.0546679 -0.522875 0)
(0.0899081 -0.530442 0)
(0.128188 -0.544183 0)
(0.159555 -0.556313 0)
(0.200242 -0.580942 0)
(0.231893 -0.594066 0)
(0.281268 -0.632107 0)
(0.282313 -0.635011 0)
(0.270358 -0.666414 0)
(0.294172 -0.732078 0)
(0.279092 -0.897382 0)
(0.339297 -0.814875 0)
(0.268672 -0.612167 0)
(0.312417 -0.653893 0)
(0.850708 -0.922184 0)
(-0.109146 0.106056 0)
(-0.00774577 0.362895 0)
(-0.0376688 0.445642 0)
(0.0412368 0.330968 0)
(0.176868 0.162075 0)
(0.355559 -0.0417119 0)
(-0.113049 0.24004 0)
(0.0154477 -0.551327 0)
(0.0481054 -0.55679 0)
(0.0783765 -0.565368 0)
(0.1135 -0.57993 0)
(0.142155 -0.596206 0)
(0.18316 -0.618453 0)
(0.207681 -0.642478 0)
(0.254838 -0.668866 0)
(0.252845 -0.647362 0)
(0.238984 -0.691293 0)
(0.270226 -0.755682 0)
(0.213644 -0.915575 0)
(0.254414 -0.785772 0)
(0.189333 -0.59301 0)
(0.334899 -1.14225 0)
(0.0170154 -0.0770476 0)
(-0.261807 0.419392 0)
(-0.0675223 0.380511 0)
(-0.088642 0.349835 0)
(-0.0955934 0.223236 0)
(-0.0148509 0.162705 0)
(-0.210313 -0.0308648 0)
(-0.773517 0.232791 0)
(0.013173 -0.581539 0)
(0.0407722 -0.586105 0)
(0.0662759 -0.595568 0)
(0.0968601 -0.607036 0)
(0.119085 -0.626197 0)
(0.161902 -0.639138 0)
(0.175157 -0.67111 0)
(0.231017 -0.6715 0)
(0.216731 -0.566266 0)
(0.201753 -0.592442 0)
(0.215358 -0.673366 0)
(0.120456 -0.90913 0)
(0.187465 -0.755935 0)
(0.0977358 -0.588316 0)
(0.142748 -1.30438 0)
(-0.209613 0.126902 0)
(-0.0722164 0.446225 0)
(-0.0944645 0.384829 0)
(-0.187863 0.417647 0)
(-0.193997 0.385623 0)
(-0.171759 0.383421 0)
(-0.398044 0.14855 0)
(-0.966372 0.345395 0)
(0.0111338 -0.605651 0)
(0.0340889 -0.610639 0)
(0.0567435 -0.621875 0)
(0.0824775 -0.635298 0)
(0.108295 -0.66366 0)
(0.148318 -0.680583 0)
(0.1827 -0.733633 0)
(0.294117 -0.726572 0)
(0.33782 -0.835232 0)
(0.199963 -0.880513 0)
(0.00226421 -0.936751 0)
(-0.0220836 -0.960002 0)
(0.0432878 -0.725677 0)
(0.0172583 -0.458679 0)
(0.0731916 -0.72376 0)
(0.0384374 0.154639 0)
(0.0549886 0.38293 0)
(-0.0763129 0.374915 0)
(-0.130008 0.47808 0)
(-0.148638 0.545399 0)
(-0.248056 0.520834 0)
(-0.429217 0.43353 0)
(-0.743148 0.568116 0)
(0.00829158 -0.623407 0)
(0.024257 -0.628717 0)
(0.0407534 -0.639457 0)
(0.0539401 -0.654631 0)
(0.0725313 -0.681418 0)
(0.0767448 -0.705597 0)
(0.106577 -0.762761 0)
(0.115172 -0.794442 0)
(0.165605 -0.999882 0)
(0.108186 -0.997283 0)
(0.103903 -1.10413 0)
(0.0637576 -0.984463 0)
(0.0863618 -0.814578 0)
(0.0183972 -0.581118 0)
(0.237159 -1.48728 0)
(0.289164 0.343303 0)
(0.206388 0.549628 0)
(-0.0247443 0.514519 0)
(-0.111536 0.671799 0)
(-0.174098 0.707218 0)
(-0.253657 0.792212 0)
(-0.371862 0.662513 0)
(-0.479961 0.661814 0)
(0.00607276 -0.664131 0)
(0.017787 -0.669538 0)
(0.0295852 -0.678643 0)
(0.0378369 -0.693763 0)
(0.0520092 -0.711022 0)
(0.0513858 -0.736674 0)
(0.0796171 -0.774559 0)
(0.0601182 -0.784271 0)
(0.117833 -0.896257 0)
(0.068431 -0.869705 0)
(0.0944268 -0.94342 0)
(0.0433462 -0.900969 0)
(0.00793135 -0.615475 0)
(0.029533 -0.579204 0)
(0.188343 -0.740684 0)
(0.082132 0.269449 0)
(0.237454 0.880911 0)
(0.0370396 0.817966 0)
(-0.0803279 0.755245 0)
(-0.0603903 0.725063 0)
(-0.268351 0.764521 0)
(-0.459694 0.686183 0)
(-0.425124 0.736162 0)
(0.00481115 -0.683062 0)
(0.0145801 -0.687937 0)
(0.0235936 -0.696529 0)
(0.0299608 -0.710861 0)
(0.0406015 -0.726573 0)
(0.0303276 -0.758772 0)
(0.0537981 -0.795792 0)
(-0.00040542 -0.858123 0)
(0.092423 -1.02907 0)
(0.085998 -0.971763 0)
(0.154614 -0.958425 0)
(-0.0121166 -1.10612 0)
(-0.327209 -0.702744 0)
(0.0676899 -0.914601 0)
(0.185064 -0.949019 0)
(0.186153 -0.539119 0)
(0.178968 1.04912 0)
(-0.13221 1.0455 0)
(-0.255292 0.87139 0)
(-0.212401 0.875356 0)
(-0.301745 0.692825 0)
(-0.364541 0.663941 0)
(-0.344801 0.740314 0)
(0.00383349 -0.681828 0)
(0.0123672 -0.687303 0)
(0.019741 -0.696779 0)
(0.0266433 -0.712381 0)
(0.0281509 -0.728424 0)
(0.00836222 -0.759456 0)
(0.00513279 -0.768906 0)
(-0.0943979 -0.835456 0)
(-0.012031 -0.744865 0)
(0.189699 -0.993381 0)
(0.0865578 -0.956877 0)
(0.0384609 -1.19921 0)
(0.00841019 -1.01077 0)
(0.0996506 -0.951499 0)
(-0.0356761 -0.794363 0)
(-0.527649 0.382514 0)
(-0.337659 1.08833 0)
(-0.344232 1.2349 0)
(-0.321372 0.978206 0)
(-0.347574 0.822851 0)
(-0.453811 0.698717 0)
(-0.44579 0.660221 0)
(-0.36243 0.704066 0)
(0.00276793 -0.709549 0)
(0.0101383 -0.713895 0)
(0.0161842 -0.722767 0)
(0.0225676 -0.734903 0)
(0.0181511 -0.753162 0)
(0.00652781 -0.770842 0)
(-0.00563426 -0.76097 0)
(-0.0548482 -0.761592 0)
(-0.117286 -0.643629 0)
(-0.0454535 -0.751667 0)
(0.155636 -1.0161 0)
(0.0326414 -1.06756 0)
(-0.0603357 -0.925773 0)
(-0.0803625 -0.779086 0)
(-0.501306 -0.328739 0)
(-0.684465 0.325893 0)
(-0.637888 0.912186 0)
(-0.472062 1.07595 0)
(-0.564331 0.718807 0)
(-0.46948 0.572003 0)
(-0.416191 0.576298 0)
(-0.404629 0.606863 0)
(-0.325425 0.61743 0)
(0.000169888 -0.670803 0)
(0.00194582 -0.673079 0)
(0.00184138 -0.677372 0)
(-0.00132886 -0.684727 0)
(0.000418135 -0.704699 0)
(-0.00151378 -0.718211 0)
(-0.00642418 -0.732374 0)
(-0.0282156 -0.717975 0)
(-0.0476134 -0.643692 0)
(-0.0996601 -0.57349 0)
(-0.125825 -0.76942 0)
(0.0079653 -1.01966 0)
(-0.235553 -0.741678 0)
(-0.100085 -0.688411 0)
(-0.60495 -0.362717 0)
(-0.698256 0.32929 0)
(-0.787854 0.602291 0)
(-0.642343 0.512205 0)
(-0.636306 0.530914 0)
(-0.484937 0.551229 0)
(-0.462432 0.529279 0)
(-0.382567 0.527567 0)
(-0.316609 0.573907 0)
(-0.0028056 -0.665031 0)
(-0.00859541 -0.670607 0)
(-0.0110506 -0.680694 0)
(-0.0151147 -0.680596 0)
(-0.012717 -0.698185 0)
(-0.00379279 -0.721965 0)
(0.00360287 -0.730948 0)
(0.00759798 -0.733026 0)
(-0.00709818 -0.630854 0)
(-0.0620432 -0.570643 0)
(-0.0690815 -0.458522 0)
(-0.16465 -0.617853 0)
(-0.111309 -0.315711 0)
(-0.26863 -0.418546 0)
(-0.810685 -0.0781246 0)
(-0.733207 0.384341 0)
(-0.760926 0.487513 0)
(-0.666038 0.311761 0)
(-0.596737 0.491914 0)
(-0.488371 0.475754 0)
(-0.45588 0.517055 0)
(-0.370136 0.449026 0)
(-0.362741 0.47527 0)
(-0.00562944 -0.725989 0)
(-0.016886 -0.731331 0)
(-0.018466 -0.754853 0)
(-0.0246686 -0.775233 0)
(-0.0405724 -0.824049 0)
(-0.0443555 -0.850989 0)
(-0.0464107 -0.86812 0)
(-0.0349514 -0.841931 0)
(-0.0182279 -0.670143 0)
(-0.071501 -0.528142 0)
(-0.0705724 -0.580825 0)
(-0.0752028 -0.451363 0)
(-0.411307 -0.524456 0)
(-0.794616 -0.608006 0)
(-0.922568 0.209916 0)
(-0.934594 0.433597 0)
(-0.90548 0.495055 0)
(-0.640547 0.373486 0)
(-0.49755 0.407723 0)
(-0.45266 0.400758 0)
(-0.477891 0.431 0)
(-0.496245 0.393608 0)
(-0.364395 0.337307 0)
(-0.0153713 -1.88559 0)
(-0.0461536 -1.89502 0)
(-0.0557726 -1.90744 0)
(-0.12865 -1.93323 0)
(-0.217791 -1.94609 0)
(-0.280868 -1.9579 0)
(-0.334099 -1.96968 0)
(-0.326179 -1.95213 0)
(-0.308318 -1.77652 0)
(-0.289891 -1.24304 0)
(-0.263537 -0.712446 0)
(-0.621003 -0.783628 0)
(-0.929568 -0.583256 0)
(-1.00077 -0.162605 0)
(-1.06736 0.199757 0)
(-0.929814 0.411761 0)
(-0.848484 0.414604 0)
(-0.695931 0.436236 0)
(-0.623191 0.360762 0)
(-0.521301 0.354489 0)
(-0.480616 0.267053 0)
(-0.436111 0.358483 0)
(-0.377322 0.337085 0)
(-0.0366207 -0.62129 0)
(-0.103798 -0.633019 0)
(-0.171189 -0.641155 0)
(-0.253569 -0.666001 0)
(-0.34306 -0.667382 0)
(-0.442423 -0.669791 0)
(-0.56241 -0.659236 0)
(-0.672572 -0.666744 0)
(-0.746333 -0.6954 0)
(-0.874226 -0.835708 0)
(-0.824496 -0.944556 0)
(-0.89287 -0.441757 0)
(-1.13887 -0.189488 0)
(-0.810571 0.0506076 0)
(-0.712818 0.238328 0)
(-0.907141 0.30777 0)
(-0.934269 0.335022 0)
(-0.690875 0.343221 0)
(-0.633341 0.288794 0)
(-0.541724 0.317901 0)
(-0.493473 0.307775 0)
(-0.449367 0.332517 0)
(-0.371357 0.307504 0)
(-0.0357314 -0.505529 0)
(-0.107304 -0.514535 0)
(-0.177366 -0.521221 0)
(-0.263803 -0.526523 0)
(-0.355018 -0.534813 0)
(-0.44617 -0.526997 0)
(-0.548902 -0.517547 0)
(-0.632866 -0.487261 0)
(-0.820896 -0.46178 0)
(-1.01864 -0.513637 0)
(-0.728007 -0.376896 0)
(-0.634828 -0.268549 0)
(-0.76545 -0.117221 0)
(-0.685978 0.0478846 0)
(-0.692912 0.0163166 0)
(-0.910627 0.177721 0)
(-0.876984 0.272052 0)
(-0.732264 0.214381 0)
(-0.659739 0.282367 0)
(-0.534944 0.284257 0)
(-0.479411 0.256723 0)
(-0.439421 0.273134 0)
(-0.36805 0.262212 0)
(-0.0303108 -0.886364 0)
(-0.101795 -0.896575 0)
(-0.17362 -0.896931 0)
(-0.25732 -0.89742 0)
(-0.34383 -0.8955 0)
(-0.449545 -0.874793 0)
(-0.562096 -0.846155 0)
(-0.68083 -0.773071 0)
(-0.899931 -0.66444 0)
(-0.995585 -0.419572 0)
(-0.710506 -0.215208 0)
(-0.606595 -0.239778 0)
(-0.690324 -0.156678 0)
(-0.608825 -0.086589 0)
(-0.525508 -0.125987 0)
(-0.804792 0.10672 0)
(-0.91059 0.236997 0)
(-0.703665 0.232844 0)
(-0.620948 0.204525 0)
(-0.567931 0.20713 0)
(-0.490169 0.258256 0)
(-0.441817 0.269311 0)
(-0.358612 0.262589 0)
(-0.0329395 -1.01581 0)
(-0.104686 -1.02594 0)
(-0.172577 -1.02383 0)
(-0.256225 -1.02369 0)
(-0.334592 -1.01922 0)
(-0.432562 -1.00034 0)
(-0.512335 -0.966342 0)
(-0.588857 -0.906865 0)
(-0.683361 -0.904126 0)
(-0.616105 -0.437858 0)
(-0.581758 -0.289653 0)
(-0.540087 -0.291199 0)
(-0.595861 -0.112444 0)
(-0.614371 -0.0560083 0)
(-0.615048 -0.0336982 0)
(-0.532282 -0.070432 0)
(-0.701872 0.21508 0)
(-0.810042 0.245514 0)
(-0.658256 0.2235 0)
(-0.49862 0.243512 0)
(-0.436665 0.196083 0)
(-0.431747 0.198176 0)
(-0.365856 0.188501 0)
(-0.0330221 -0.876869 0)
(-0.103587 -0.883415 0)
(-0.170555 -0.879271 0)
(-0.252949 -0.858258 0)
(-0.331417 -0.856536 0)
(-0.418345 -0.798825 0)
(-0.500527 -0.788606 0)
(-0.665455 -0.789547 0)
(-0.558735 -0.529957 0)
(-0.463505 -0.435359 0)
(-0.516987 -0.319868 0)
(-0.475988 -0.265275 0)
(-0.518721 -0.201066 0)
(-0.454744 -0.105553 0)
(-0.454796 -0.0471677 0)
(-0.421992 -0.0019031 0)
(-0.478624 -0.0844719 0)
(-0.660062 0.210932 0)
(-0.62847 0.277997 0)
(-0.639705 0.313467 0)
(-0.542226 0.242464 0)
(-0.424226 0.251885 0)
(-0.338355 0.244294 0)
(-0.0355644 -0.866641 0)
(-0.103189 -0.870418 0)
(-0.179571 -0.870306 0)
(-0.255041 -0.833027 0)
(-0.305524 -0.840186 0)
(-0.369595 -0.75958 0)
(-0.516381 -0.812237 0)
(-0.422776 -0.56151 0)
(-0.378935 -0.426342 0)
(-0.440891 -0.379033 0)
(-0.426775 -0.291284 0)
(-0.442878 -0.250515 0)
(-0.441904 -0.167906 0)
(-0.434347 -0.129776 0)
(-0.406394 -0.086631 0)
(-0.399444 -0.0651581 0)
(-0.367868 -0.067491 0)
(-0.559816 0.0744032 0)
(-0.585688 0.219084 0)
(-0.498952 0.213157 0)
(-0.469758 0.325769 0)
(-0.435878 0.354987 0)
(-0.408409 0.358383 0)
(-0.0329394 -0.761862 0)
(-0.0981626 -0.766313 0)
(-0.164491 -0.749456 0)
(-0.244249 -0.748157 0)
(-0.26844 -0.761949 0)
(-0.419351 -0.664589 0)
(-0.356897 -0.548155 0)
(-0.327685 -0.433672 0)
(-0.370588 -0.417061 0)
(-0.355137 -0.349218 0)
(-0.382428 -0.3122 0)
(-0.368076 -0.248315 0)
(-0.38565 -0.20605 0)
(-0.363448 -0.142324 0)
(-0.368639 -0.0874877 0)
(-0.352379 -0.060331 0)
(-0.383268 -0.0180413 0)
(-0.303237 -0.0354404 0)
(-0.440033 0.179407 0)
(-0.547938 0.179211 0)
(-0.442445 0.21925 0)
(-0.415003 0.228909 0)
(-0.347761 0.265379 0)
(-0.0297168 -0.722585 0)
(-0.102352 -0.730659 0)
(-0.15255 -0.68714 0)
(-0.2697 -0.737781 0)
(-0.244129 -0.610252 0)
(-0.231097 -0.591717 0)
(-0.306642 -0.440038 0)
(-0.293882 -0.443156 0)
(-0.314962 -0.362263 0)
(-0.319848 -0.333993 0)
(-0.329501 -0.270765 0)
(-0.333184 -0.239897 0)
(-0.339255 -0.18517 0)
(-0.331707 -0.144447 0)
(-0.343793 -0.109816 0)
(-0.291045 -0.0767562 0)
(-0.291284 -0.0321362 0)
(-0.272814 0.0102785 0)
(-0.310765 -0.0604871 0)
(-0.457827 0.167826 0)
(-0.422735 0.177696 0)
(-0.397294 0.231004 0)
(-0.348508 0.238812 0)
(-0.0402257 -0.646604 0)
(-0.0766175 -0.637613 0)
(-0.191154 -0.625484 0)
(-0.173455 -0.56541 0)
(-0.173903 -0.494943 0)
(-0.227528 -0.503246 0)
(-0.236304 -0.439554 0)
(-0.255131 -0.398637 0)
(-0.268885 -0.363114 0)
(-0.274495 -0.316201 0)
(-0.284529 -0.281247 0)
(-0.283846 -0.233641 0)
(-0.291219 -0.199913 0)
(-0.284285 -0.147526 0)
(-0.285946 -0.11327 0)
(-0.282342 -0.0731714 0)
(-0.279072 -0.0754824 0)
(-0.266147 -0.0282099 0)
(-0.24089 -0.0462294 0)
(-0.369075 0.0641009 0)
(-0.392733 0.171095 0)
(-0.3552 0.158017 0)
(-0.322235 0.205257 0)
(-0.0182195 -0.591529 0)
(-0.0612423 -0.576987 0)
(-0.096678 -0.556644 0)
(-0.140965 -0.48164 0)
(-0.153485 -0.48731 0)
(-0.176942 -0.444239 0)
(-0.202658 -0.401124 0)
(-0.21178 -0.375377 0)
(-0.228463 -0.328582 0)
(-0.237323 -0.299155 0)
(-0.246141 -0.256804 0)
(-0.252028 -0.225085 0)
(-0.256329 -0.187244 0)
(-0.258789 -0.152713 0)
(-0.254582 -0.120775 0)
(-0.257166 -0.0860683 0)
(-0.233215 -0.0563049 0)
(-0.220423 -0.0224803 0)
(-0.256932 0.00270916 0)
(-0.197022 -0.00210518 0)
(-0.297751 0.149218 0)
(-0.371255 0.153147 0)
(-0.296097 0.1808 0)
(-0.0211374 -0.49265 0)
(-0.0494325 -0.490678 0)
(-0.0884985 -0.477249 0)
(-0.108759 -0.457184 0)
(-0.127475 -0.426207 0)
(-0.154428 -0.406289 0)
(-0.164999 -0.373835 0)
(-0.18272 -0.344153 0)
(-0.192932 -0.313777 0)
(-0.202369 -0.280216 0)
(-0.210187 -0.249698 0)
(-0.214194 -0.214867 0)
(-0.219327 -0.18406 0)
(-0.218597 -0.147828 0)
(-0.223262 -0.116613 0)
(-0.21647 -0.0880158 0)
(-0.216686 -0.0568178 0)
(-0.195944 -0.0480899 0)
(-0.206535 -0.0186741 0)
(-0.179701 0.0205511 0)
(-0.212368 -0.0328038 0)
(-0.315951 0.126056 0)
(-0.285298 0.128329 0)
(-0.0122467 -0.446834 0)
(-0.0385631 -0.441667 0)
(-0.0620476 -0.432714 0)
(-0.0863128 -0.40696 0)
(-0.105724 -0.394066 0)
(-0.122769 -0.367459 0)
(-0.139696 -0.34389 0)
(-0.151967 -0.318394 0)
(-0.163833 -0.290163 0)
(-0.173054 -0.263602 0)
(-0.180409 -0.234748 0)
(-0.1864 -0.206823 0)
(-0.190321 -0.179056 0)
(-0.193202 -0.148776 0)
(-0.196515 -0.123512 0)
(-0.194611 -0.0988276 0)
(-0.192649 -0.072163 0)
(-0.18276 -0.0603182 0)
(-0.190351 -0.0308 0)
(-0.180665 -0.00880972 0)
(-0.165397 -0.0177934 0)
(-0.23824 0.054401 0)
(-0.258478 0.145852 0)
(-0.0115762 -0.392872 0)
(-0.0317697 -0.392609 0)
(-0.0533823 -0.383409 0)
(-0.0712943 -0.371902 0)
(-0.0874529 -0.355016 0)
(-0.103809 -0.338002 0)
(-0.116001 -0.317003 0)
(-0.12855 -0.294965 0)
(-0.137936 -0.271864 0)
(-0.146675 -0.246592 0)
(-0.15321 -0.222244 0)
(-0.158681 -0.194966 0)
(-0.16289 -0.170357 0)
(-0.164997 -0.140182 0)
(-0.173239 -0.117196 0)
(-0.168625 -0.0897309 0)
(-0.18257 -0.0712454 0)
(-0.158156 -0.051008 0)
(-0.149826 -0.0277591 0)
(-0.145857 -0.000980269 0)
(-0.167658 0.0185888 0)
(-0.134269 0.0105417 0)
(-0.209541 0.123028 0)
(-0.00839589 -0.357979 0)
(-0.0254554 -0.357078 0)
(-0.041749 -0.350577 0)
(-0.0573869 -0.338457 0)
(-0.0716908 -0.326702 0)
(-0.0846597 -0.310242 0)
(-0.0963479 -0.293444 0)
(-0.106667 -0.27425 0)
(-0.115167 -0.25429 0)
(-0.123219 -0.232755 0)
(-0.128539 -0.211637 0)
(-0.134717 -0.187939 0)
(-0.137373 -0.166859 0)
(-0.142093 -0.13913 0)
(-0.147844 -0.120597 0)
(-0.144648 -0.093834 0)
(-0.145626 -0.0751953 0)
(-0.142476 -0.0452578 0)
(-0.145924 -0.0454294 0)
(-0.134063 -0.0109687 0)
(-0.149188 -0.00368605 0)
(-0.109817 0.0342343 0)
(-0.16483 0.0213237 0)
(-0.00711971 -0.326345 0)
(-0.0208945 -0.326752 0)
(-0.0346155 -0.320845 0)
(-0.0473425 -0.312588 0)
(-0.0591176 -0.301578 0)
(-0.0703364 -0.288651 0)
(-0.0798438 -0.273705 0)
(-0.0891754 -0.256784 0)
(-0.0962063 -0.239061 0)
(-0.103815 -0.218634 0)
(-0.10814 -0.19946 0)
(-0.114102 -0.17522 0)
(-0.115996 -0.156371 0)
(-0.119968 -0.127186 0)
(-0.127284 -0.1152 0)
(-0.127348 -0.0909886 0)
(-0.127561 -0.0748426 0)
(-0.128944 -0.0516594 0)
(-0.117337 -0.0357816 0)
(-0.102799 -0.00818755 0)
(-0.119022 -0.00306871 0)
(-0.0918759 0.0508634 0)
(-0.128428 -0.0136293 0)
(-0.00555061 -0.300396 0)
(-0.016694 -0.300848 0)
(-0.0275316 -0.296018 0)
(-0.0379056 -0.288524 0)
(-0.0475145 -0.279454 0)
(-0.0565386 -0.268026 0)
(-0.0642021 -0.255378 0)
(-0.0717841 -0.24078 0)
(-0.0767217 -0.225755 0)
(-0.0834378 -0.208384 0)
(-0.0847557 -0.192693 0)
(-0.0920331 -0.17315 0)
(-0.0902334 -0.157256 0)
(-0.0989279 -0.130919 0)
(-0.107967 -0.115106 0)
(-0.104382 -0.0945708 0)
(-0.107879 -0.0752447 0)
(-0.103574 -0.055562 0)
(-0.100174 -0.0329536 0)
(-0.0990619 -0.0166676 0)
(-0.0875433 -0.0102719 0)
(-0.104315 0.0289173 0)
(-0.0444241 -0.013836 0)
(-0.00432913 -0.282727 0)
(-0.0129632 -0.283499 0)
(-0.021443 -0.279282 0)
(-0.0296124 -0.27313 0)
(-0.0372363 -0.265087 0)
(-0.0447373 -0.25531 0)
(-0.0510008 -0.243949 0)
(-0.0580308 -0.230914 0)
(-0.0621259 -0.216706 0)
(-0.0694963 -0.199995 0)
(-0.0703045 -0.183701 0)
(-0.0791302 -0.158605 0)
(-0.0773326 -0.146144 0)
(-0.0844687 -0.103458 0)
(-0.089508 -0.111617 0)
(-0.0868747 -0.0862517 0)
(-0.087875 -0.0748898 0)
(-0.0867029 -0.0564455 0)
(-0.0812778 -0.040691 0)
(-0.07961 -0.0257042 0)
(-0.0728757 -0.00784604 0)
(-0.0841102 -0.00354306 0)
(-0.0403427 0.0351821 0)
(-0.0034169 -0.260383 0)
(-0.0102809 -0.261252 0)
(-0.0169529 -0.257484 0)
(-0.023332 -0.251908 0)
(-0.029155 -0.244669 0)
(-0.0347345 -0.235901 0)
(-0.0390056 -0.225605 0)
(-0.0438311 -0.214451 0)
(-0.045227 -0.201657 0)
(-0.0504027 -0.189279 0)
(-0.0455149 -0.173528 0)
(-0.0559125 -0.161223 0)
(-0.0307783 -0.145235 0)
(-0.0653999 -0.131592 0)
(-0.0970545 -0.112376 0)
(-0.0695568 -0.09946 0)
(-0.0778413 -0.0786805 0)
(-0.0694646 -0.0639775 0)
(-0.0703681 -0.0442006 0)
(-0.0664113 -0.0328036 0)
(-0.0660026 -0.0113717 0)
(-0.0633445 -0.00891925 0)
(-0.0702617 0.0342533 0)
(-0.00251422 -0.261765 0)
(-0.00759792 -0.262728 0)
(-0.0126053 -0.259422 0)
(-0.0174531 -0.254546 0)
(-0.0220142 -0.248115 0)
(-0.0264738 -0.240344 0)
(-0.0302907 -0.231024 0)
(-0.034408 -0.220962 0)
(-0.0371353 -0.208805 0)
(-0.0412761 -0.197811 0)
(-0.0425289 -0.181763 0)
(-0.0469774 -0.173392 0)
(-0.0468036 -0.148958 0)
(-0.0512677 -0.163617 0)
(-0.0495676 -0.109949 0)
(-0.0518968 -0.097435 0)
(-0.0518627 -0.0732062 0)
(-0.0507256 -0.0590465 0)
(-0.0505474 -0.0416979 0)
(-0.04633 -0.030223 0)
(-0.0507224 -0.0130324 0)