/*--------------------------------*- C++ -*----------------------------------*\
| =========                 |                                                 |
| \\      /  F ield         | foam-extend: Open Source CFD                    |
|  \\    /   O peration     | Version:     4.1                                |
|   \\  /    A nd           | Web:         http://www.foam-extend.org         |
|    \\/     M anipulation  |                                                 |
\*---------------------------------------------------------------------------*/
FoamFile
{
    version     2.0;
    format      ascii;
    class       volVectorField;
    location    "0.1";
    object      U_0;
}
// * * * * * * * * * * * * * * * * * * * * * * * * * * * * * * * * * * * * * //

dimensions      [0 1 -1 0 0 0 0];

internalField   nonuniform List<vector> 
2268
(
(0.0501628 -0.0100787 0)
(0.1179 -0.00984642 0)
(0.220708 -0.0106993 0)
(0.290675 -0.00927048 0)
(0.388584 -0.0120455 0)
(0.479846 -0.00829736 0)
(0.558137 -0.0135544 0)
(0.650267 -0.00472835 0)
(0.751336 -0.0212576 0)
(0.77648 0.0392856 0)
(0.686464 -0.116126 0)
(0.706454 -0.0631513 0)
(0.809741 -0.0286634 0)
(0.859795 -0.0342368 0)
(0.977048 -0.0616784 0)
(1.20413 0.0235988 0)
(1.32885 -0.153199 0)
(1.58932 -0.148358 0)
(1.68593 -0.173866 0)
(1.7975 -0.174574 0)
(1.92044 -0.173048 0)
(2.00033 -0.000893348 0)
(2.20195 0.343205 0)
(0.0503608 -0.0301898 0)
(0.117942 -0.0295812 0)
(0.221431 -0.032073 0)
(0.290846 -0.0282299 0)
(0.3899 -0.0357811 0)
(0.47979 -0.0289805 0)
(0.564471 -0.029636 0)
(0.637306 -0.0389704 0)
(0.791541 -0.0175294 0)
(0.729837 -0.0278045 0)
(0.671734 -0.139227 0)
(0.724305 -0.0617075 0)
(0.810568 -0.0448088 0)
(0.864349 -0.0562643 0)
(1.04393 -0.0941038 0)
(1.16259 -0.16657 0)
(1.35276 -0.00747553 0)
(1.36119 -0.000733748 0)
(0.706095 -0.00069477 0)
(0.399172 0.0152414 0)
(-0.0941911 0.184869 0)
(0.652471 0.550392 0)
(1.44861 0.707222 0)
(0.0504971 -0.0504564 0)
(0.117423 -0.0494254 0)
(0.221679 -0.0534839 0)
(0.289871 -0.0469185 0)
(0.388879 -0.0594842 0)
(0.484896 -0.0468313 0)
(0.549492 -0.0532686 0)
(0.666727 -0.0611268 0)
(0.785093 -0.04463 0)
(0.689026 -0.226094 0)
(0.653407 -0.16619 0)
(0.716296 -0.11018 0)
(0.786951 -0.0867029 0)
(0.863865 -0.134136 0)
(1.0529 -0.18563 0)
(1.22476 -0.198093 0)
(1.42534 0.101271 0)
(1.53701 0.0299462 0)
(1.62749 0.0647134 0)
(1.72653 -0.00151593 0)
(2.10032 -0.03275 0)
(1.83532 0.204568 0)
(1.53134 0.937878 0)
(0.0507501 -0.0703277 0)
(0.116738 -0.069185 0)
(0.222324 -0.0746906 0)
(0.288544 -0.0656145 0)
(0.389446 -0.0854522 0)
(0.485753 -0.0640291 0)
(0.545861 -0.0761882 0)
(0.704288 -0.100238 0)
(0.66572 -0.10234 0)
(0.622303 -0.240124 0)
(0.635698 -0.180308 0)
(0.703703 -0.134079 0)
(0.790477 -0.119409 0)
(0.90298 -0.197625 0)
(1.11207 -0.23593 0)
(1.20267 -0.191644 0)
(1.33659 -0.0506774 0)
(1.38947 -0.0494708 0)
(1.3403 -0.0345848 0)
(1.12825 -0.0580291 0)
(0.805267 0.203842 0)
(0.941862 0.899614 0)
(1.45018 1.39514 0)
(0.0509163 -0.0907474 0)
(0.115707 -0.0892108 0)
(0.222995 -0.0958749 0)
(0.285435 -0.0844927 0)
(0.391629 -0.108246 0)
(0.480976 -0.0813824 0)
(0.556319 -0.112979 0)
(0.699801 -0.0785659 0)
(0.622894 -0.25542 0)
(0.585957 -0.243105 0)
(0.632751 -0.203736 0)
(0.686657 -0.19238 0)
(0.803324 -0.172168 0)
(0.921572 -0.275633 0)
(1.10166 -0.308393 0)
(1.2086 -0.258522 0)
(1.27403 -0.0798777 0)
(1.36448 0.0139015 0)
(1.41759 0.108597 0)
(1.59591 0.0995174 0)
(1.73728 0.312258 0)
(1.07135 1.13696 0)
(1.03139 1.7382 0)
(0.0513138 -0.109927 0)
(0.114737 -0.109121 0)
(0.2241 -0.116513 0)
(0.283979 -0.103332 0)
(0.393759 -0.135875 0)
(0.473854 -0.10051 0)
(0.606088 -0.144855 0)
(0.573902 -0.145961 0)
(0.53702 -0.28294 0)
(0.565898 -0.264983 0)
(0.636877 -0.225045 0)
(0.703989 -0.228813 0)
(0.828742 -0.233595 0)
(0.958731 -0.347717 0)
(1.1031 -0.357829 0)
(1.16293 -0.262559 0)
(1.19653 -0.0754527 0)
(1.20142 -0.0220683 0)
(1.19858 -0.00635089 0)
(1.10778 0.00534891 0)
(1.23359 0.320894 0)
(0.741696 1.40395 0)
(0.669933 2.89901 0)
(0.0511357 -0.131014 0)
(0.1131 -0.129386 0)
(0.225642 -0.137331 0)
(0.280487 -0.123901 0)
(0.396104 -0.155736 0)
(0.480283 -0.143375 0)
(0.557956 -0.119676 0)
(0.534867 -0.289081 0)
(0.511631 -0.290002 0)
(0.563161 -0.292805 0)
(0.636842 -0.269294 0)
(0.715214 -0.279945 0)
(0.843741 -0.287915 0)
(0.9444 -0.424257 0)
(1.05103 -0.407164 0)
(1.08964 -0.296534 0)
(1.12881 -0.188098 0)
(1.29372 -0.00914332 0)
(1.48544 0.0950401 0)
(1.82074 0.240292 0)
(2.04055 0.730726 0)
(0.965615 1.47143 0)
(0.647292 3.76152 0)
(0.0518287 -0.147507 0)
(0.112587 -0.149113 0)
(0.228831 -0.15809 0)
(0.281213 -0.152069 0)
(0.390108 -0.199557 0)
(0.507491 -0.115458 0)
(0.447958 -0.211378 0)
(0.480949 -0.32473 0)
(0.504487 -0.304228 0)
(0.56421 -0.326904 0)
(0.643878 -0.295932 0)
(0.75023 -0.340992 0)
(0.847473 -0.310351 0)
(0.902337 -0.454781 0)
(1.00266 -0.444244 0)
(1.03627 -0.304916 0)
(1.08948 -0.263332 0)
(1.2194 -0.143669 0)
(1.23325 -0.103408 0)
(1.15854 0.120278 0)
(1.75408 0.902827 0)
(1.11315 1.51936 0)
(0.735062 4.59846 0)
(-0.07084 0.0497472 0)
(-0.182199 0.0459577 0)
(-0.258395 0.011496 0)
(-0.27453 3.72676e-05 0)
(-0.24316 -0.00702963 0)
(-0.221204 -0.011274 0)
(-0.198649 -0.0121833 0)
(-0.169821 -0.0120124 0)
(-0.147722 -0.0112893 0)
(-0.110224 -0.0100557 0)
(-0.0930704 -0.00435472 0)
(-0.0746138 -0.00505369 0)
(-0.0496142 -0.0019632 0)
(-0.0355034 -0.00367535 0)
(-0.02186 -0.00159146 0)
(-0.0142352 -0.00138859 0)
(-0.00749389 -0.000948486 0)
(-0.00420544 -0.000711875 0)
(-0.0012773 -0.000535487 0)
(-0.0693027 0.150711 0)
(-0.196253 0.0813946 0)
(-0.278636 0.0334697 0)
(-0.27932 -0.00556285 0)
(-0.243406 -0.0209048 0)
(-0.21813 -0.0327155 0)
(-0.193757 -0.0367861 0)
(-0.16417 -0.0358871 0)
(-0.141629 -0.0336676 0)
(-0.102152 -0.0262185 0)
(-0.0858465 -0.0218183 0)
(-0.0681816 -0.00887841 0)
(-0.0377583 -0.013009 0)
(-0.0326505 -0.00849078 0)
(-0.0162566 -0.00529814 0)
(-0.0110264 -0.00368187 0)
(-0.005201 -0.00245143 0)
(-0.00284245 -0.00176261 0)
(-0.000808982 -0.00134798 0)
(-0.0982383 0.254431 0)
(-0.229698 0.152085 0)
(-0.29554 0.0491194 0)
(-0.29536 -0.0138847 0)
(-0.25109 -0.037822 0)
(-0.222991 -0.0582459 0)
(-0.194865 -0.0623052 0)
(-0.163158 -0.0576385 0)
(-0.138398 -0.0538193 0)
(-0.0997641 -0.0441541 0)
(-0.0802924 -0.0354199 0)
(-0.0710438 -0.0282697 0)
(-0.0348687 -0.0222902 0)
(-0.0270503 -0.0121956 0)
(-0.0145152 -0.00848011 0)
(-0.0099779 -0.00559858 0)
(-0.00460794 -0.00358804 0)
(-0.00250021 -0.00257018 0)
(-0.000682332 -0.00207929 0)
(-0.105663 0.413628 0)
(-0.289017 0.201166 0)
(-0.350876 0.0605923 0)
(-0.316985 -0.0228972 0)
(-0.263912 -0.0578673 0)
(-0.229145 -0.0891216 0)
(-0.193641 -0.0917495 0)
(-0.160983 -0.0801828 0)
(-0.135035 -0.0753051 0)
(-0.0950369 -0.0523003 0)
(-0.0770003 -0.0727638 0)
(-0.065077 -0.0249481 0)
(-0.0300157 -0.0262669 0)
(-0.0266104 -0.0151076 0)
(-0.0124513 -0.0109265 0)
(-0.0087949 -0.00719524 0)
(-0.00384437 -0.00471514 0)
(-0.00213105 -0.00329862 0)
(-0.00055388 -0.00281283 0)
(-0.174617 0.580869 0)
(-0.376102 0.223594 0)
(-0.395725 0.0580121 0)
(-0.346797 -0.0517427 0)
(-0.281954 -0.0938758 0)
(-0.238579 -0.122737 0)
(-0.190993 -0.117794 0)
(-0.157357 -0.109729 0)
(-0.12534 -0.0879393 0)
(-0.0999194 -0.0896981 0)
(-0.0703378 -0.0658277 0)
(-0.042713 -0.0347373 0)
(-0.0318779 -0.0343749 0)
(-0.0243985 -0.0198864 0)
(-0.0108085 -0.0139913 0)
(-0.00728932 -0.00888588 0)
(-0.00294491 -0.00601019 0)
(-0.00164276 -0.0039075 0)
(-0.000427213 -0.00333739 0)
(-0.257197 0.836932 0)
(-0.500781 0.272301 0)
(-0.473401 0.0505066 0)
(-0.385365 -0.0628467 0)
(-0.298524 -0.102309 0)
(-0.239819 -0.15499 0)
(-0.188172 -0.157681 0)
(-0.149687 -0.138 0)
(-0.125664 -0.138128 0)
(-0.0845367 -0.0841675 0)
(-0.0567899 -0.0592038 0)
(-0.0490179 -0.0500937 0)
(-0.020284 -0.0382927 0)
(-0.0191085 -0.0221511 0)
(-0.00782764 -0.0163452 0)
(-0.00539527 -0.0105568 0)
(-0.00172759 -0.00724441 0)
(-0.000933589 -0.00449147 0)
(-0.000249808 -0.00368706 0)
(-0.334905 1.25567 0)
(-0.679102 0.325593 0)
(-0.541109 -0.00206303 0)
(-0.434226 -0.165742 0)
(-0.331901 -0.200857 0)
(-0.265845 -0.210888 0)
(-0.18417 -0.200843 0)
(-0.153504 -0.158162 0)
(-0.0997766 -0.118622 0)
(-0.0660901 -0.0816379 0)
(-0.0590794 -0.0905279 0)
(-0.0340544 -0.0546025 0)
(-0.0197485 -0.0423836 0)
(-0.0140379 -0.0260043 0)
(-0.00577056 -0.0180309 0)
(-0.00342117 -0.0119364 0)
(-0.000369044 -0.00792414 0)
(-5.58167e-05 -0.00497141 0)
(-1.02402e-05 -0.00388189 0)
(-0.514879 1.28116 0)
(-1.05887 0.332903 0)
(-0.678787 -0.0444531 0)
(-0.510887 -0.245628 0)
(-0.335269 -0.275339 0)
(-0.253127 -0.257873 0)
(-0.171127 -0.233582 0)
(-0.117427 -0.18644 0)
(-0.0975032 -0.11767 0)
(-0.0711602 -0.125824 0)
(-0.0462288 -0.0931132 0)
(-0.0292929 -0.0574413 0)
(-0.00826595 -0.0456425 0)
(-0.00802792 -0.0266484 0)
(-0.00181714 -0.0197395 0)
(-0.00109732 -0.0123562 0)
(0.00123316 -0.00812291 0)
(0.000873058 -0.00511464 0)
(0.000301616 -0.00391894 0)
(0.049036 -0.183814 0)
(0.111695 -0.181507 0)
(0.218931 -0.196712 0)
(0.268489 -0.148948 0)
(0.415971 -0.214996 0)
(0.38752 -0.244214 0)
(0.394082 -0.311629 0)
(0.468541 -0.333283 0)
(0.495903 -0.34186 0)
(0.570795 -0.371093 0)
(0.628675 -0.396736 0)
(0.785287 -0.393234 0)
(0.802133 -0.483601 0)
(0.836111 -0.575062 0)
(0.941301 -0.52234 0)
(0.9577 -0.344012 0)
(1.05662 -0.329753 0)
(1.30718 -0.248136 0)
(1.38818 0.00706779 0)
(1.50313 0.352978 0)
(1.83983 1.42494 0)
(1.48131 1.70305 0)
(0.952306 4.62553 0)
(0.0529429 -0.214443 0)
(0.105725 -0.22636 0)
(0.253865 -0.22429 0)
(0.246204 -0.279747 0)
(0.268295 -0.270391 0)
(0.335572 -0.356236 0)
(0.397594 -0.33477 0)
(0.421036 -0.378496 0)
(0.484483 -0.396893 0)
(0.524145 -0.438869 0)
(0.601728 -0.450248 0)
(0.647705 -0.514124 0)
(0.790706 -0.685098 0)
(0.850072 -0.66505 0)
(0.902264 -0.546778 0)
(0.885125 -0.478601 0)
(0.91332 -0.358733 0)
(0.989376 -0.282344 0)
(0.922037 -0.0583396 0)
(1.21696 0.657182 0)
(2.30897 1.98595 0)
(1.33639 1.41051 0)
(1.43189 4.93278 0)
(0.0353857 -0.266981 0)
(0.0834505 -0.284554 0)
(0.155841 -0.277904 0)
(0.210643 -0.357499 0)
(0.258781 -0.334312 0)
(0.318166 -0.366301 0)
(0.345975 -0.393845 0)
(0.408234 -0.426046 0)
(0.455131 -0.452356 0)
(0.50143 -0.492238 0)
(0.56588 -0.50718 0)
(0.609926 -0.586734 0)
(0.737054 -0.718227 0)
(0.732491 -0.688055 0)
(0.71771 -0.537038 0)
(0.796877 -0.549418 0)
(1.01119 -0.525183 0)
(1.1032 -0.525704 0)
(1.26836 -0.370374 0)
(1.20723 0.305312 0)
(2.12006 1.72702 0)
(0.925315 0.790116 0)
(1.70796 5.28169 0)
(0.0350543 -0.334652 0)
(0.0794331 -0.344325 0)
(0.148224 -0.350061 0)
(0.191299 -0.372369 0)
(0.233635 -0.376317 0)
(0.284042 -0.427397 0)
(0.334168 -0.432329 0)
(0.367793 -0.47251 0)
(0.426047 -0.497869 0)
(0.452073 -0.540753 0)
(0.521297 -0.564556 0)
(0.550455 -0.679563 0)
(0.680977 -0.789366 0)
(0.649923 -0.696625 0)
(0.637732 -0.566261 0)
(0.750902 -0.497065 0)
(0.776245 -0.498852 0)
(0.731394 -0.330058 0)
(0.663488 0.227198 0)
(0.572502 0.953613 0)
(1.52363 1.63782 0)
(0.990562 0.669436 0)
(2.27116 5.31546 0)
(0.0262118 -0.382822 0)
(0.0727727 -0.39413 0)
(0.123722 -0.394248 0)
(0.167884 -0.429099 0)
(0.218679 -0.434765 0)
(0.262685 -0.460681 0)
(0.301957 -0.481262 0)
(0.342531 -0.515804 0)
(0.391459 -0.542016 0)
(0.416896 -0.580465 0)
(0.47208 -0.609492 0)
(0.502164 -0.751093 0)
(0.607084 -0.818796 0)
(0.541931 -0.674603 0)
(0.559273 -0.581737 0)
(0.599662 -0.603015 0)
(0.668308 -0.577809 0)
(0.537694 -0.400232 0)
(0.418148 0.341447 0)
(-0.0546006 0.802639 0)
(1.10637 1.37991 0)
(-0.288272 0.552222 0)
(2.57261 4.83404 0)
(0.0246495 -0.434725 0)
(0.0669534 -0.441016 0)
(0.114202 -0.447856 0)
(0.157916 -0.464053 0)
(0.194567 -0.473516 0)
(0.238473 -0.506689 0)
(0.27776 -0.516413 0)
(0.311728 -0.557446 0)
(0.357216 -0.577086 0)
(0.368753 -0.610527 0)
(0.412184 -0.652112 0)
(0.436191 -0.813611 0)
(0.515266 -0.831887 0)
(0.453732 -0.660706 0)
(0.489924 -0.645204 0)
(0.522349 -0.652235 0)
(0.575729 -0.731547 0)
(0.424678 -0.228543 0)
(0.0698451 0.488786 0)
(0.0673321 0.648167 0)
(0.693567 0.943761 0)
(0.482554 0.472529 0)
(1.72188 3.18198 0)
(0.0201474 -0.475535 0)
(0.0602733 -0.482595 0)
(0.0998027 -0.488221 0)
(0.139724 -0.507452 0)
(0.178204 -0.519017 0)
(0.219212 -0.542456 0)
(0.250954 -0.557078 0)
(0.292534 -0.592686 0)
(0.320086 -0.603164 0)
(0.32078 -0.628125 0)
(0.347847 -0.68087 0)
(0.363624 -0.852419 0)
(0.425539 -0.821973 0)
(0.362443 -0.636225 0)
(0.390086 -0.640924 0)
(0.472541 -0.617708 0)
(0.182868 -0.0408994 0)
(-0.196904 0.325652 0)
(-0.0358055 0.453216 0)
(0.19336 0.405922 0)
(0.457089 0.387026 0)
(0.964014 -0.0132104 0)
(0.606528 1.1002 0)
(0.0181633 -0.515415 0)
(0.0544618 -0.520487 0)
(0.0895654 -0.527926 0)
(0.127566 -0.541546 0)
(0.158735 -0.553504 0)
(0.198994 -0.578018 0)
(0.230384 -0.590715 0)
(0.278979 -0.629001 0)
(0.279881 -0.631906 0)
(0.267979 -0.663 0)
(0.290581 -0.728164 0)
(0.275129 -0.892495 0)
(0.33468 -0.807469 0)
(0.264603 -0.60831 0)
(0.312646 -0.65146 0)
(0.842391 -0.859936 0)
(-0.14146 0.131069 0)
(-0.0219641 0.367156 0)
(-0.0525366 0.443282 0)
(0.014852 0.325205 0)
(0.127328 0.166327 0)
(0.203655 -0.0215771 0)
(-0.31514 0.220706 0)
(0.0154342 -0.54895 0)
(0.0480009 -0.554325 0)
(0.0782079 -0.562739 0)
(0.113142 -0.577071 0)
(0.141504 -0.59302 0)
(0.182125 -0.615294 0)
(0.20627 -0.638722 0)
(0.253291 -0.665213 0)
(0.250923 -0.644279 0)
(0.236735 -0.688046 0)
(0.266908 -0.751247 0)
(0.209627 -0.910723 0)
(0.250126 -0.778848 0)
(0.185676 -0.587616 0)
(0.331583 -1.1105 0)
(0.00902262 -0.0611875 0)
(-0.241905 0.420151 0)
(-0.0703528 0.383617 0)
(-0.103012 0.355031 0)
(-0.113651 0.238653 0)
(-0.0524164 0.190738 0)
(-0.323304 0.0149962 0)
(-0.892804 0.255194 0)
(0.0131899 -0.5791 0)
(0.0408192 -0.58359 0)
(0.0663317 -0.592777 0)
(0.0967727 -0.603991 0)
(0.118694 -0.622508 0)
(0.160849 -0.63534 0)
(0.173592 -0.666603 0)
(0.228917 -0.667304 0)
(0.21427 -0.561612 0)
(0.199704 -0.588096 0)
(0.213381 -0.667563 0)
(0.119233 -0.903045 0)
(0.185305 -0.749555 0)
(0.0972695 -0.585866 0)
(0.121578 -1.2506 0)
(-0.257212 0.169767 0)
(-0.0805154 0.460542 0)
(-0.101278 0.39182 0)
(-0.192661 0.428349 0)
(-0.198162 0.407249 0)
(-0.183728 0.415731 0)
(-0.414713 0.209246 0)
(-0.940817 0.428368 0)
(0.0112002 -0.603103 0)
(0.0343415 -0.607983 0)
(0.057124 -0.618932 0)
(0.0830251 -0.631911 0)
(0.108484 -0.65919 0)
(0.148241 -0.675659 0)
(0.181467 -0.728323 0)
(0.291931 -0.722142 0)
(0.335169 -0.829736 0)
(0.197628 -0.875132 0)
(0.000781568 -0.929306 0)
(-0.0230889 -0.953168 0)
(0.0410081 -0.719491 0)
(0.0168306 -0.456721 0)
(0.0571778 -0.739177 0)
(0.00192219 0.152268 0)
(0.0412684 0.377055 0)
(-0.0821671 0.375445 0)
(-0.131978 0.484468 0)
(-0.146914 0.557923 0)
(-0.242867 0.542303 0)
(-0.409209 0.473234 0)
(-0.667371 0.625631 0)
(0.00841295 -0.621348 0)
(0.0247157 -0.626502 0)
(0.0415899 -0.63712 0)
(0.0554975 -0.651809 0)
(0.0738062 -0.677753 0)
(0.0776729 -0.701723 0)
(0.105741 -0.758273 0)
(0.113997 -0.790149 0)
(0.163045 -0.994772 0)
(0.107213 -0.991758 0)
(0.102988 -1.09733 0)
(0.0635214 -0.977251 0)
(0.0851642 -0.807076 0)
(0.0181022 -0.570695 0)
(0.206402 -1.27231 0)
(0.315902 0.346445 0)
(0.203106 0.529553 0)
(-0.0215143 0.504515 0)
(-0.105373 0.670016 0)
(-0.16513 0.707321 0)
(-0.242532 0.799543 0)
(-0.346703 0.678538 0)
(-0.428309 0.682078 0)
(0.00623108 -0.662182 0)
(0.0182362 -0.667581 0)
(0.0304923 -0.676614 0)
(0.0395949 -0.691802 0)
(0.0528432 -0.709471 0)
(0.0511374 -0.735684 0)
(0.0781264 -0.773233 0)
(0.0590789 -0.781488 0)
(0.116543 -0.890664 0)
(0.0684515 -0.86307 0)
(0.0930939 -0.937317 0)
(0.0435031 -0.893855 0)
(0.00981647 -0.612422 0)
(0.02601 -0.552655 0)
(0.192376 -0.739517 0)
(0.225658 0.239474 0)
(0.244565 0.849652 0)
(0.0473677 0.800643 0)
(-0.0698946 0.747753 0)
(-0.0462451 0.722005 0)
(-0.251108 0.767906 0)
(-0.437288 0.692712 0)
(-0.386372 0.738443 0)
(0.00489454 -0.682178 0)
(0.0148321 -0.687135 0)
(0.023946 -0.695822 0)
(0.030497 -0.710586 0)
(0.0399426 -0.727662 0)
(0.0299103 -0.758654 0)
(0.0535927 -0.795768 0)
(-0.000340527 -0.855574 0)
(0.0932781 -1.02604 0)
(0.0834529 -0.966196 0)
(0.151672 -0.951571 0)
(-0.00983507 -1.09691 0)
(-0.326044 -0.689078 0)
(0.0722729 -0.896106 0)
(0.193962 -0.92915 0)
(0.183831 -0.396211 0)
(0.219742 1.01284 0)
(-0.10043 1.02766 0)
(-0.237367 0.857423 0)
(-0.19813 0.874496 0)
(-0.284167 0.686816 0)
(-0.342436 0.663105 0)
(-0.3199 0.733627 0)
(0.00377935 -0.678011 0)
(0.0122997 -0.68352 0)
(0.0193992 -0.693207 0)
(0.0253646 -0.708808 0)
(0.0278165 -0.725222 0)
(0.00853418 -0.754469 0)
(0.00543423 -0.763526 0)
(-0.0919796 -0.828182 0)
(-0.0104245 -0.741001 0)
(0.190584 -0.990068 0)
(0.0868653 -0.948838 0)
(0.0397075 -1.18673 0)
(0.0109041 -0.996448 0)
(0.103945 -0.944712 0)
(-0.00197505 -0.804654 0)
(-0.483685 0.308916 0)
(-0.278328 1.08839 0)
(-0.301846 1.23523 0)
(-0.29183 0.980832 0)
(-0.32489 0.821599 0)
(-0.437937 0.69583 0)
(-0.425389 0.655474 0)
(-0.340838 0.693253 0)
(0.00277406 -0.704982 0)
(0.00984254 -0.709512 0)
(0.0159591 -0.719111 0)
(0.0222683 -0.730868 0)
(0.0179451 -0.748067 0)
(0.00711652 -0.766841 0)
(-0.00406343 -0.757053 0)
(-0.055147 -0.761161 0)
(-0.115946 -0.641159 0)
(-0.0421804 -0.744893 0)
(0.158029 -1.00423 0)
(0.0379105 -1.05673 0)
(-0.052436 -0.91286 0)
(-0.0608664 -0.79806 0)
(-0.465583 -0.336429 0)
(-0.64304 0.396907 0)
(-0.632847 0.939045 0)
(-0.451906 1.08794 0)
(-0.544273 0.731162 0)
(-0.456377 0.572591 0)
(-0.40191 0.575725 0)
(-0.38822 0.601832 0)
(-0.309771 0.60707 0)
(5.17265e-05 -0.669384 0)
(0.000578895 -0.671333 0)
(0.00273788 -0.675235 0)
(0.000820247 -0.682513 0)
(-0.000671016 -0.699496 0)
(-0.00120933 -0.713211 0)
(-0.00592088 -0.727742 0)
(-0.0320819 -0.715255 0)
(-0.0537913 -0.64341 0)
(-0.101155 -0.573429 0)
(-0.118673 -0.763373 0)
(0.0160701 -1.02474 0)
(-0.224045 -0.750602 0)
(-0.0833632 -0.703096 0)
(-0.630768 -0.409401 0)
(-0.665229 0.341986 0)
(-0.78741 0.625975 0)
(-0.632731 0.519393 0)
(-0.625121 0.532544 0)
(-0.473732 0.552486 0)
(-0.45054 0.528522 0)
(-0.37214 0.523439 0)
(-0.306051 0.567259 0)
(-0.00256371 -0.670474 0)
(-0.00749863 -0.674211 0)
(-0.0106896 -0.673086 0)
(-0.0134671 -0.683206 0)
(-0.0118511 -0.699906 0)
(-0.00381413 -0.711732 0)
(0.00243135 -0.733062 0)
(0.00348348 -0.728518 0)
(-0.0104561 -0.624997 0)
(-0.0628222 -0.570316 0)
(-0.0706057 -0.454624 0)
(-0.167133 -0.620225 0)
(-0.108703 -0.306988 0)
(-0.244882 -0.416423 0)
(-0.779185 -0.0772886 0)
(-0.743533 0.38587 0)
(-0.75448 0.500926 0)
(-0.658923 0.316574 0)
(-0.588357 0.494326 0)
(-0.479927 0.47634 0)
(-0.446215 0.51613 0)
(-0.361415 0.445771 0)
(-0.353441 0.469961 0)
(-0.00546301 -0.714655 0)
(-0.0154745 -0.716872 0)
(-0.0194502 -0.736888 0)
(-0.0261448 -0.756973 0)
(-0.035627 -0.79818 0)
(-0.0373675 -0.82006 0)
(-0.0371881 -0.835057 0)
(-0.0236674 -0.811562 0)
(-0.00841926 -0.655422 0)
(-0.0704964 -0.530236 0)
(-0.0712393 -0.576765 0)
(-0.0720637 -0.464336 0)
(-0.382408 -0.520212 0)
(-0.783559 -0.612774 0)
(-0.93301 0.19244 0)
(-0.937564 0.436268 0)
(-0.902549 0.502567 0)
(-0.634739 0.37774 0)
(-0.492003 0.409411 0)
(-0.446361 0.401591 0)
(-0.469631 0.429868 0)
(-0.487709 0.391408 0)
(-0.356752 0.334432 0)
(-0.0154236 -1.90749 0)
(-0.0452449 -1.91804 0)
(-0.0547987 -1.93399 0)
(-0.126484 -1.95955 0)
(-0.211971 -1.97306 0)
(-0.269444 -1.98704 0)
(-0.318796 -1.9965 0)
(-0.305965 -1.97598 0)
(-0.283138 -1.78201 0)
(-0.270278 -1.23205 0)
(-0.234882 -0.682015 0)
(-0.602944 -0.765856 0)
(-0.919794 -0.599085 0)
(-0.990111 -0.174893 0)
(-1.06265 0.198485 0)
(-0.933565 0.412615 0)
(-0.846145 0.419383 0)
(-0.690326 0.438322 0)
(-0.617453 0.36162 0)
(-0.515473 0.355346 0)
(-0.47395 0.267337 0)
(-0.428762 0.356738 0)
(-0.370531 0.334224 0)
(-0.0363938 -0.618003 0)
(-0.102771 -0.628856 0)
(-0.169954 -0.63627 0)
(-0.25184 -0.659793 0)
(-0.341439 -0.660073 0)
(-0.441239 -0.663553 0)
(-0.56164 -0.655638 0)
(-0.672396 -0.667237 0)
(-0.747399 -0.708731 0)
(-0.86583 -0.852422 0)
(-0.817042 -0.962911 0)
(-0.879136 -0.457692 0)
(-1.13026 -0.186753 0)
(-0.810275 0.0536625 0)
(-0.714424 0.238055 0)
(-0.907817 0.309599 0)
(-0.933197 0.337386 0)
(-0.686053 0.345396 0)
(-0.628112 0.289797 0)
(-0.536279 0.317964 0)
(-0.487439 0.307391 0)
(-0.44308 0.330842 0)
(-0.365743 0.304992 0)
(-0.0358312 -0.497133 0)
(-0.107356 -0.506078 0)
(-0.177615 -0.51327 0)
(-0.263852 -0.518833 0)
(-0.354919 -0.527673 0)
(-0.445363 -0.520281 0)
(-0.54742 -0.510803 0)
(-0.63546 -0.481046 0)
(-0.823585 -0.459861 0)
(-1.02168 -0.510073 0)
(-0.729898 -0.373859 0)
(-0.635501 -0.263515 0)
(-0.76343 -0.117974 0)
(-0.684561 0.0469719 0)
(-0.691359 0.0160404 0)
(-0.909488 0.178192 0)
(-0.875178 0.274001 0)
(-0.728661 0.215647 0)
(-0.655273 0.282934 0)
(-0.53004 0.284481 0)
(-0.474041 0.256287 0)
(-0.434142 0.271639 0)
(-0.363561 0.260217 0)
(-0.0304262 -0.883994 0)
(-0.10179 -0.893992 0)
(-0.173742 -0.894394 0)
(-0.257087 -0.894853 0)
(-0.343186 -0.892954 0)
(-0.447807 -0.872607 0)
(-0.55959 -0.844515 0)
(-0.680379 -0.773373 0)
(-0.900077 -0.665161 0)
(-0.99584 -0.42002 0)
(-0.709479 -0.21347 0)
(-0.604034 -0.238502 0)
(-0.688392 -0.154141 0)
(-0.606738 -0.0849181 0)
(-0.523343 -0.125933 0)
(-0.802153 0.107608 0)
(-0.908259 0.238443 0)
(-0.699909 0.233847 0)
(-0.616527 0.205099 0)
(-0.563784 0.207028 0)
(-0.485793 0.25764 0)
(-0.437394 0.267973 0)
(-0.35489 0.260756 0)
(-0.0330347 -1.01475 0)
(-0.104705 -1.02473 0)
(-0.17281 -1.0227 0)
(-0.256188 -1.02266 0)
(-0.334275 -1.01818 0)
(-0.43167 -0.999596 0)
(-0.511346 -0.966018 0)
(-0.588216 -0.907638 0)
(-0.682797 -0.90434 0)
(-0.61623 -0.43592 0)
(-0.581776 -0.28774 0)
(-0.539149 -0.290564 0)
(-0.594303 -0.112337 0)
(-0.611865 -0.055325 0)
(-0.613296 -0.0327551 0)
(-0.530502 -0.0695096 0)
(-0.699345 0.216801 0)
(-0.807245 0.247492 0)
(-0.654806 0.22426 0)
(-0.494523 0.243524 0)
(-0.432551 0.195376 0)
(-0.427942 0.197001 0)
(-0.36267 0.186977 0)
(-0.0330558 -0.875469 0)
(-0.10352 -0.881879 0)
(-0.170529 -0.877717 0)
(-0.252715 -0.857045 0)
(-0.330942 -0.854972 0)
(-0.417669 -0.797728 0)
(-0.499777 -0.788017 0)
(-0.664714 -0.790677 0)
(-0.558737 -0.5302 0)
(-0.463167 -0.435894 0)
(-0.516358 -0.319526 0)
(-0.475163 -0.265074 0)
(-0.517896 -0.200802 0)
(-0.453993 -0.105225 0)
(-0.453824 -0.0468946 0)
(-0.421076 -0.00013956 0)
(-0.477376 -0.0825005 0)
(-0.657261 0.211578 0)
(-0.625453 0.278124 0)
(-0.636453 0.313409 0)
(-0.539159 0.242102 0)
(-0.420976 0.250931 0)
(-0.335487 0.242774 0)
(-0.0354753 -0.865671 0)
(-0.103238 -0.869357 0)
(-0.179236 -0.869179 0)
(-0.254558 -0.832057 0)
(-0.305366 -0.838992 0)
(-0.368841 -0.758962 0)
(-0.516107 -0.811876 0)
(-0.42242 -0.561201 0)
(-0.37846 -0.425608 0)
(-0.440556 -0.378182 0)
(-0.426564 -0.290562 0)
(-0.442401 -0.250105 0)
(-0.441517 -0.167402 0)
(-0.433822 -0.129067 0)
(-0.405673 -0.0857908 0)
(-0.398548 -0.0643002 0)
(-0.366023 -0.0669343 0)
(-0.556893 0.0747642 0)
(-0.582903 0.219503 0)
(-0.496165 0.212913 0)
(-0.466935 0.324783 0)
(-0.433038 0.353086 0)
(-0.405876 0.356387 0)
(-0.0329623 -0.760724 0)
(-0.098083 -0.765101 0)
(-0.164356 -0.748679 0)
(-0.243838 -0.74693 0)
(-0.267934 -0.760942 0)
(-0.418641 -0.663748 0)
(-0.356379 -0.547952 0)
(-0.327312 -0.433351 0)
(-0.370141 -0.4171 0)
(-0.354723 -0.349036 0)
(-0.381814 -0.311869 0)
(-0.367709 -0.248088 0)
(-0.385065 -0.205692 0)
(-0.362939 -0.142374 0)
(-0.367678 -0.0875082 0)
(-0.351272 -0.0600007 0)
(-0.382182 -0.0172957 0)
(-0.302066 -0.0349736 0)
(-0.438053 0.1797 0)
(-0.545779 0.179173 0)
(-0.440077 0.218747 0)
(-0.412825 0.227862 0)
(-0.345898 0.26367 0)
(-0.0297002 -0.721483 0)
(-0.101879 -0.729517 0)
(-0.152081 -0.686278 0)
(-0.269369 -0.73693 0)
(-0.243594 -0.609538 0)
(-0.230551 -0.591194 0)
(-0.306094 -0.439418 0)
(-0.293381 -0.442708 0)
(-0.314446 -0.3618 0)
(-0.319477 -0.333607 0)
(-0.328925 -0.270528 0)
(-0.332749 -0.23954 0)
(-0.338708 -0.185052 0)
(-0.331147 -0.144173 0)
(-0.343286 -0.109523 0)
(-0.290655 -0.0764978 0)
(-0.290809 -0.0322877 0)
(-0.27191 0.0106116 0)
(-0.30965 -0.0598895 0)
(-0.455842 0.167461 0)
(-0.42066 0.176763 0)
(-0.395366 0.229802 0)
(-0.346888 0.237503 0)
(-0.0400591 -0.646033 0)
(-0.0765411 -0.636998 0)
(-0.190755 -0.624568 0)
(-0.173182 -0.564971 0)
(-0.173439 -0.494266 0)
(-0.227307 -0.502476 0)
(-0.235891 -0.439216 0)
(-0.254743 -0.398204 0)
(-0.268476 -0.362717 0)
(-0.274058 -0.315844 0)
(-0.284095 -0.280855 0)
(-0.28346 -0.233389 0)
(-0.290746 -0.199587 0)
(-0.283922 -0.147517 0)
(-0.285431 -0.113248 0)
(-0.281702 -0.0729675 0)
(-0.278453 -0.0753087 0)
(-0.265295 -0.0276787 0)
(-0.239806 -0.0462928 0)
(-0.367085 0.0636612 0)
(-0.390935 0.170721 0)
(-0.353491 0.157218 0)
(-0.320901 0.204095 0)
(-0.0182683 -0.590658 0)
(-0.0611521 -0.576037 0)
(-0.0965712 -0.556034 0)
(-0.140666 -0.481045 0)
(-0.153384 -0.486627 0)
(-0.176587 -0.443807 0)
(-0.202337 -0.400784 0)
(-0.21151 -0.374918 0)
(-0.228064 -0.328333 0)
(-0.236989 -0.298813 0)
(-0.245702 -0.256634 0)
(-0.251609 -0.224834 0)
(-0.255867 -0.187138 0)
(-0.258295 -0.152568 0)
(-0.254208 -0.120704 0)
(-0.256717 -0.086087 0)
(-0.232752 -0.056412 0)
(-0.219743 -0.0225494 0)
(-0.256123 0.00259303 0)
(-0.196135 -0.00226136 0)
(-0.296507 0.148738 0)
(-0.369999 0.152362 0)
(-0.294919 0.179851 0)
(-0.0210299 -0.492192 0)
(-0.0493434 -0.490227 0)
(-0.0882538 -0.476691 0)
(-0.108582 -0.456633 0)
(-0.127151 -0.425822 0)
(-0.154055 -0.405837 0)
(-0.164724 -0.373455 0)
(-0.182341 -0.343785 0)
(-0.192612 -0.313443 0)
(-0.202012 -0.279926 0)
(-0.209833 -0.24941 0)
(-0.213867 -0.21468 0)
(-0.218949 -0.183868 0)
(-0.21827 -0.147782 0)
(-0.222807 -0.116591 0)
(-0.21605 -0.088026 0)
(-0.216191 -0.056746 0)
(-0.195431 -0.0480084 0)
(-0.205997 -0.0188612 0)
(-0.179124 0.0204047 0)
(-0.21188 -0.0326959 0)
(-0.314827 0.125505 0)
(-0.284285 0.127548 0)
(-0.0122563 -0.446225 0)
(-0.0384927 -0.441052 0)
(-0.0619983 -0.432115 0)
(-0.0861556 -0.406461 0)
(-0.105558 -0.393532 0)
(-0.122583 -0.367057 0)
(-0.139443 -0.343512 0)
(-0.151729 -0.318057 0)
(-0.163536 -0.289886 0)
(-0.172758 -0.263335 0)
(-0.180078 -0.234545 0)
(-0.186059 -0.20663 0)
(-0.189965 -0.178917 0)
(-0.192824 -0.148699 0)
(-0.19613 -0.12345 0)
(-0.194203 -0.0988674 0)
(-0.19217 -0.0723128 0)
(-0.182339 -0.0605145 0)
(-0.189824 -0.0311188 0)
(-0.180144 -0.00890111 0)
(-0.164742 -0.0180282 0)
(-0.237197 0.0538041 0)
(-0.257707 0.145237 0)
(-0.0115288 -0.392507 0)
(-0.0317066 -0.39219 0)
(-0.0532457 -0.38302 0)
(-0.0711413 -0.371483 0)
(-0.0872682 -0.354664 0)
(-0.103576 -0.33763 0)
(-0.115781 -0.31669 0)
(-0.128281 -0.294666 0)
(-0.13768 -0.2716 0)
(-0.146393 -0.246378 0)
(-0.152924 -0.222045 0)
(-0.1584 -0.194851 0)
(-0.162578 -0.170256 0)
(-0.164708 -0.140208 0)
(-0.172878 -0.117235 0)
(-0.168268 -0.0899054 0)
(-0.182175 -0.0712312 0)
(-0.157847 -0.0511394 0)
(-0.149361 -0.0280056 0)
(-0.145475 -0.00132926 0)
(-0.167298 0.0182411 0)
(-0.133857 0.0101408 0)
(-0.208809 0.122558 0)
(-0.00839013 -0.357579 0)
(-0.0254086 -0.356656 0)
(-0.0416849 -0.350151 0)
(-0.057286 -0.338086 0)
(-0.0715651 -0.326325 0)
(-0.084511 -0.309926 0)
(-0.0961732 -0.293135 0)
(-0.106474 -0.273985 0)
(-0.114959 -0.254044 0)
(-0.122987 -0.232546 0)
(-0.128307 -0.211444 0)
(-0.134458 -0.187791 0)
(-0.137108 -0.166735 0)
(-0.141807 -0.139101 0)
(-0.147529 -0.120543 0)
(-0.144395 -0.0938845 0)
(-0.14533 -0.0753081 0)
(-0.142101 -0.0453751 0)
(-0.14551 -0.0457454 0)
(-0.133659 -0.0112838 0)
(-0.148738 -0.00403219 0)
(-0.109451 0.0337824 0)
(-0.164482 0.0213142 0)
(-0.0070997 -0.326042 0)
(-0.02085 -0.326405 0)
(-0.034535 -0.320515 0)
(-0.047235 -0.312256 0)
(-0.0589886 -0.301273 0)
(-0.0701741 -0.288355 0)
(-0.0796756 -0.273436 0)
(-0.0889715 -0.256544 0)
(-0.0960057 -0.238842 0)
(-0.103585 -0.218475 0)
(-0.107915 -0.199311 0)
(-0.113873 -0.175167 0)
(-0.115755 -0.156336 0)
(-0.119757 -0.127231 0)
(-0.12702 -0.115222 0)
(-0.12709 -0.0911289 0)
(-0.127326 -0.0749585 0)
(-0.128744 -0.0519234 0)
(-0.117127 -0.0360895 0)
(-0.102523 -0.00862251 0)
(-0.11884 -0.00342958 0)
(-0.0916882 0.0501936 0)
(-0.128279 -0.0136266 0)
(-0.00554322 -0.300137 0)
(-0.0166646 -0.300556 0)
(-0.0274854 -0.29573 0)
(-0.037838 -0.288257 0)
(-0.0474331 -0.279192 0)
(-0.0564341 -0.26779 0)
(-0.0640939 -0.25515 0)
(-0.0716474 -0.240579 0)
(-0.0766037 -0.225559 0)
(-0.0832789 -0.20822 0)
(-0.0846386 -0.19252 0)
(-0.091855 -0.173001 0)
(-0.0900705 -0.157129 0)
(-0.0987482 -0.13092 0)
(-0.107809 -0.115132 0)
(-0.104212 -0.0946082 0)
(-0.10766 -0.0753336 0)
(-0.103363 -0.0556769 0)
(-0.100002 -0.0331055 0)
(-0.098819 -0.0169697 0)
(-0.0874658 -0.0104946 0)
(-0.104053 0.0285026 0)
(-0.0445679 -0.0139405 0)
(-0.0043242 -0.282465 0)
(-0.012949 -0.283202 0)
(-0.0214194 -0.278994 0)
(-0.0295767 -0.27285 0)
(-0.0371956 -0.264822 0)
(-0.0446758 -0.255062 0)
(-0.0509426 -0.243721 0)
(-0.0579346 -0.230705 0)
(-0.0620436 -0.21652 0)
(-0.0693551 -0.199836 0)
(-0.0701853 -0.183596 0)
(-0.0789314 -0.158586 0)
(-0.0771507 -0.146105 0)
(-0.0842526 -0.10344 0)
(-0.0892989 -0.111649 0)
(-0.086683 -0.0863923 0)
(-0.0877277 -0.0750273 0)
(-0.0865422 -0.0566431 0)
(-0.0811591 -0.0409407 0)
(-0.0794635 -0.0259786 0)
(-0.0728176 -0.00816335 0)
(-0.0839629 -0.00369535 0)
(-0.040322 0.0347052 0)
(-0.0034118 -0.260168 0)
(-0.0102633 -0.261003 0)
(-0.0169247 -0.257244 0)
(-0.0232902 -0.251682 0)
(-0.0291079 -0.244459 0)
(-0.0346686 -0.235708 0)
(-0.0389441 -0.225442 0)
(-0.0437423 -0.214311 0)
(-0.0451591 -0.201555 0)
(-0.0502961 -0.189193 0)
(-0.0454447 -0.173503 0)
(-0.0558012 -0.161184 0)
(-0.0307134 -0.145218 0)
(-0.0652916 -0.131627 0)
(-0.0969436 -0.112424 0)
(-0.0694515 -0.0994485 0)
(-0.0776892 -0.078781 0)
(-0.0693618 -0.0640678 0)
(-0.0702069 -0.0443808 0)
(-0.0662682 -0.0329795 0)
(-0.0658472 -0.0116635 0)
(-0.0631786 -0.00906268 0)
(-0.0701707 0.0336915 0)
(-0.00250681 -0.261526 0)
(-0.00757304 -0.262456 0)
(-0.0125642 -0.259157 0)
(-0.0173944 -0.254289 0)
(-0.0219433 -0.24787 0)
(-0.0263831 -0.240107 0)
(-0.0301949 -0.230807 0)
(-0.0342878 -0.220756 0)
(-0.0370233 -0.208637 0)
(-0.0411361 -0.197653 0)
(-0.042416 -0.181673 0)
(-0.0468446 -0.173309 0)
(-0.0467008 -0.148973 0)
(-0.0511367 -0.16359 0)
(-0.0495181 -0.109992 0)
(-0.051832 -0.0975158 0)
(-0.0518081 -0.0733562 0)
(-0.0506892 -0.059221 0)