/*--------------------------------*- C++ -*----------------------------------*\
| =========                 |                                                 |
| \\      /  F ield         | foam-extend: Open Source CFD                    |
|  \\    /   O peration     | Version:     4.1                                |
|   \\  /    A nd           | Web:         http://www.foam-extend.org         |
|    \\/     M anipulation  |                                                 |
\*---------------------------------------------------------------------------*/
FoamFile
{
    version     2.0;
    format      ascii;
    class       surfaceScalarField;
    location    "0.65";
    object      phi;
}
// * * * * * * * * * * * * * * * * * * * * * * * * * * * * * * * * * * * * * //

dimensions      [0 3 -1 0 0 0 0];

internalField   nonuniform List<scalar> 
4432
(
4.25853e-07
-4.25853e-07
-1.30286e-06
1.72871e-06
-2.30045e-06
9.97595e-07
-1.94816e-06
-3.52289e-07
-3.3067e-06
1.35853e-06
-5.13447e-06
1.82777e-06
-5.62442e-06
4.8995e-07
-4.99903e-06
-6.25388e-07
-4.05864e-06
-9.40396e-07
-4.9495e-06
8.90862e-07
-2.70537e-06
-2.24412e-06
-3.94834e-07
-2.31054e-06
6.51031e-07
-1.04586e-06
2.05393e-06
-1.4029e-06
3.09339e-06
-1.03945e-06
4.00291e-06
-9.09523e-07
5.24335e-06
-1.24044e-06
5.89068e-06
-6.47335e-07
6.05764e-06
-1.66963e-07
5.57119e-06
4.86455e-07
4.11629e-06
1.4549e-06
2.49746e-06
1.61883e-06
2.49745e-06
3.33148e-07
-7.59001e-07
-4.43585e-07
2.50544e-06
-9.12445e-07
1.46645e-06
-1.81754e-06
5.52804e-07
-3.34272e-06
2.88371e-06
-5.18828e-06
3.67333e-06
-5.64068e-06
9.42355e-07
-4.75356e-06
-1.51251e-06
-6.14123e-06
4.47277e-07
-3.77876e-06
-1.47161e-06
-1.91455e-06
-4.10834e-06
-2.3398e-06
-1.88529e-06
-1.63508e-06
-1.75058e-06
-5.32721e-07
-2.50527e-06
1.94808e-07
-1.76698e-06
1.3638e-06
-2.07852e-06
3.1767e-06
-3.05334e-06
4.42255e-06
-1.89318e-06
4.9187e-06
-6.63114e-07
4.66996e-06
7.35193e-07
3.51003e-06
2.61483e-06
1.5034e-06
3.62547e-06
4.00085e-06
-6.08888e-08
-6.98112e-07
-3.37605e-07
2.78216e-06
-1.27094e-06
2.39979e-06
-3.53522e-06
2.81708e-06
-6.36869e-06
5.71719e-06
-5.49326e-06
2.79789e-06
-5.91275e-06
1.36185e-06
-4.59391e-06
-2.83135e-06
-6.004e-06
1.85737e-06
-2.19276e-06
-5.28284e-06
-3.66024e-06
-2.64087e-06
-3.28216e-06
-2.26337e-06
-1.9473e-06
-3.08543e-06
-2.98031e-06
-1.47226e-06
-1.26549e-06
-3.48179e-06
-1.73522e-06
-1.60879e-06
1.2061e-07
-4.90917e-06
1.86471e-06
-3.63728e-06
2.97465e-06
-1.77305e-06
3.55026e-06
1.59583e-07
3.27155e-06
2.89353e-06
1.87899e-06
5.01803e-06
5.87984e-06
-4.91805e-07
-2.06306e-07
8.88685e-08
2.20149e-06
-4.4717e-07
2.93583e-06
-1.7513e-06
4.12121e-06
-3.42727e-06
7.39317e-06
-5.85375e-06
5.22437e-06
-6.21887e-06
1.72697e-06
-9.4558e-06
4.05575e-07
-4.80672e-06
-2.79171e-06
-8.11762e-06
-1.97195e-06
-8.6541e-06
-2.10439e-06
-1.05322e-05
-3.85237e-07
-1.1548e-05
-2.06971e-06
-1.17731e-05
-1.24713e-06
-1.11199e-05
-4.13495e-06
-1.03445e-05
-2.38427e-06
-8.3836e-06
-6.87002e-06
-6.03613e-06
-5.98474e-06
-2.74297e-06
-5.06622e-06
4.24262e-07
-3.00765e-06
1.89587e-06
1.42193e-06
1.54594e-06
5.36796e-06
7.42578e-06
-1.55703e-07
-5.06036e-08
5.03617e-07
1.54217e-06
5.08358e-08
3.38861e-06
-2.2023e-06
6.37434e-06
-3.37046e-06
8.56132e-06
-6.43635e-06
8.29026e-06
-7.07588e-06
2.3665e-06
-7.12183e-06
4.51524e-07
-7.02888e-06
-2.88466e-06
-1.18386e-05
2.83778e-06
-1.26162e-05
-1.3268e-06
-1.3513e-05
5.11596e-07
-1.42993e-05
-1.28346e-06
-1.46812e-05
-8.65211e-07
-1.56638e-05
-3.15233e-06
-1.59641e-05
-2.08403e-06
-1.37939e-05
-9.04018e-06
-1.23279e-05
-7.45071e-06
-1.03253e-05
-7.06884e-06
-5.91396e-06
-7.41899e-06
-8.20568e-07
-3.67147e-06
1.47008e-06
3.07731e-06
8.89586e-06
5.76396e-07
-6.27e-07
1.27122e-06
8.47341e-07
4.94241e-07
4.16559e-06
-2.09412e-06
8.9627e-06
-4.01847e-06
1.04857e-05
-7.47276e-06
1.17446e-05
-8.30079e-06
3.19453e-06
-7.7137e-06
-1.35562e-07
-1.50068e-05
4.40842e-06
-1.53165e-05
3.14746e-06
-1.72159e-05
5.72601e-07
-1.79988e-05
1.29455e-06
-1.86069e-05
-6.7541e-07
-1.84489e-05
-1.02316e-06
-1.75061e-05
-4.0952e-06
-1.7527e-05
-2.06305e-06
-1.68896e-05
-9.67758e-06
-1.55089e-05
-8.83147e-06
-1.33257e-05
-9.25198e-06
-1.19501e-05
-8.79462e-06
-3.36728e-06
-1.22543e-05
-2.4556e-07
-4.44081e-08
8.6503e-06
1.03003e-06
-1.65703e-06
1.5479e-06
3.29463e-07
5.84391e-07
5.12911e-06
-1.175e-06
1.07221e-05
-4.2022e-06
1.35129e-05
-8.37412e-06
1.59165e-05
-1.90952e-05
1.39156e-05
-1.96203e-05
3.89508e-07
-1.95345e-05
4.32263e-06
-1.87897e-05
2.40272e-06
-1.93001e-05
1.08295e-06
-1.90329e-05
1.02741e-06
-1.88905e-05
-8.17899e-07
-1.86675e-05
-1.24609e-06
-1.91753e-05
-3.58747e-06
-1.99112e-05
-1.32708e-06
-1.75343e-05
-1.20545e-05
-1.60576e-05
-1.03082e-05
-1.46244e-05
-1.06852e-05
-1.3034e-05
-1.0385e-05
-7.13642e-06
-1.81519e-05
2.26121e-07
-7.40695e-06
8.87642e-06
8.74339e-07
-2.53137e-06
1.28678e-06
-8.29825e-08
2.59184e-07
6.15671e-06
-2.78038e-06
1.37616e-05
-8.39271e-06
1.91252e-05
-9.41595e-06
1.69397e-05
-1.21366e-05
1.66362e-05
-2.13737e-05
9.62668e-06
-2.10711e-05
4.02002e-06
-2.17688e-05
3.10042e-06
-2.14142e-05
7.28352e-07
-2.05474e-05
1.60618e-07
-2.06236e-05
-7.41741e-07
-2.01131e-05
-1.75661e-06
-2.02481e-05
-3.45242e-06
-2.11541e-05
-4.2109e-07
-1.64603e-05
-1.67483e-05
-1.46194e-05
-1.21491e-05
-1.38368e-05
-1.14678e-05
-1.40817e-05
-1.014e-05
-8.82979e-06
-2.34038e-05
-2.01041e-06
-1.42263e-05
6.86601e-06
-0.000117503
0.000117503
-0.000150964
3.34612e-05
-0.00016193
1.09667e-05
-0.000156847
-5.08385e-06
-0.000149128
-7.71842e-06
-0.000144161
-4.96763e-06
-0.000149015
4.85486e-06
-0.000157719
8.70305e-06
-0.000162058
4.3392e-06
-0.000163328
1.27e-06
-0.000165397
2.06887e-06
-0.000150436
-1.49603e-05
-0.000137448
-1.29879e-05
-0.000129764
-7.68484e-06
-6.57012e-05
-6.40623e-05
-4.55836e-05
-2.01177e-05
-3.40043e-05
-1.15793e-05
-6.21593e-06
-2.77884e-05
-6.21593e-06
-0.000101509
0.000219012
-0.000128857
6.08095e-05
-0.000134341
1.64505e-05
-0.000129287
-1.01382e-05
-0.000124165
-1.284e-05
-0.000124103
-5.02967e-06
-0.000134188
1.49399e-05
-0.000142388
1.69033e-05
-0.000147405
9.35573e-06
-0.000149739
3.60399e-06
-0.000153061
5.39077e-06
-0.000142039
-2.59827e-05
-0.000133177
-2.18498e-05
-6.7767e-05
-7.30944e-05
-5.81543e-05
-7.3675e-05
-5.12346e-05
-2.70374e-05
-3.40043e-05
-2.88096e-05
-7.55083e-06
-5.42418e-05
-1.37668e-05
-4.79806e-05
0.000266992
-9.6313e-05
0.000109142
-0.000103211
2.33481e-05
-9.1075e-05
-2.22737e-05
-7.03512e-05
-3.35638e-05
-7.19748e-05
-3.40606e-06
-5.3061e-05
-3.9739e-06
-6.62265e-05
3.00687e-05
-0.00013546
7.85894e-05
-0.000146071
1.42147e-05
-8.06918e-05
-5.99883e-05
-0.000122928
1.6254e-05
-0.000111454
-3.33244e-05
-6.2498e-05
-0.00012205
-0.000101549
-3.46244e-05
-8.56346e-05
-4.29514e-05
-7.19992e-05
-4.24449e-05
-4.70494e-05
-7.91916e-05
-6.08162e-05
-4.00418e-05
0.000307034
-9.3427e-05
0.000162527
-5.90358e-05
-1.10431e-05
-8.19192e-05
6.09709e-07
-5.29466e-05
-6.25364e-05
-4.4102e-05
-1.22507e-05
-7.39855e-05
2.59096e-05
-0.000102427
5.851e-05
-5.91376e-05
3.53003e-05
-0.000101167
5.62442e-05
-0.0001174
-4.37558e-05
-6.74833e-05
-3.36624e-05
-2.27593e-05
-7.80484e-05
-5.26838e-05
-9.21258e-05
-5.47784e-05
-3.25298e-05
-9.01968e-05
-7.53299e-06
-7.88781e-05
-5.37636e-05
-6.64671e-05
-9.16027e-05
-0.000127283
-3.02404e-05
0.000337274
-7.1722e-05
0.000204009
-9.39344e-05
1.11694e-05
-7.50158e-05
-1.8309e-05
-4.58941e-05
-9.1658e-05
-1.16125e-05
-4.65323e-05
-2.41776e-05
3.84748e-05
-1.95763e-05
5.39086e-05
-3.88887e-05
5.46128e-05
-5.68831e-07
1.79243e-05
1.42924e-05
-5.86171e-05
4.33938e-05
-6.27637e-05
2.06616e-05
-5.53162e-05
-2.75172e-05
-4.3947e-05
-8.58662e-05
2.58191e-05
-8.28928e-05
-1.05063e-05
-7.47353e-05
-6.19212e-05
-5.36499e-05
-0.000112688
-0.000180933
-2.05351e-05
0.000357809
-5.8874e-05
0.000242348
-7.75788e-05
2.98742e-05
-4.53445e-05
-5.05433e-05
-2.44621e-05
-0.00011254
-6.28329e-06
-6.47111e-05
8.70641e-06
2.34851e-05
1.8823e-05
4.3792e-05
4.44897e-05
2.89461e-05
6.33262e-05
-9.12239e-07
5.87315e-05
-5.40223e-05
5.70606e-05
-6.10929e-05
3.64251e-05
-3.46807e-05
-1.94749e-05
1.19531e-05
-7.81479e-05
8.44921e-05
-7.46352e-05
-1.4019e-05
-7.11962e-05
-6.53601e-05
-2.22592e-05
-0.000161625
-0.000203192
-1.19269e-05
0.000369736
-3.20401e-05
0.000262461
-2.78813e-05
2.57154e-05
-2.28654e-05
-5.55592e-05
-4.77755e-06
-0.000130628
-1.21237e-05
-5.7365e-05
9.73283e-06
1.62858e-06
2.41446e-05
2.93803e-05
3.32995e-05
1.97912e-05
7.35029e-05
-4.11157e-05
5.99583e-05
-4.04777e-05
2.73184e-05
-2.84529e-05
7.47849e-06
-1.48408e-05
-2.70717e-05
4.65032e-05
-4.04732e-05
9.78936e-05
-7.6749e-05
2.22568e-05
-5.17418e-05
-9.03673e-05
-8.0808e-06
-0.000205286
-0.000211273
3.05923e-07
0.000369431
8.46583e-06
0.000254301
-5.70892e-06
3.98902e-05
2.16292e-06
-6.34311e-05
6.57725e-06
-0.000135043
4.78614e-06
-5.55739e-05
1.0604e-05
-4.18933e-06
2.10844e-05
1.88999e-05
4.85766e-05
-7.70102e-06
5.63336e-05
-4.88727e-05
5.41089e-05
-3.8253e-05
4.52401e-05
-1.95841e-05
2.22011e-06
2.81791e-05
-2.66637e-05
7.5387e-05
-4.38632e-05
0.000115093
-4.6201e-05
2.45946e-05
-1.54911e-05
-0.000121077
4.74437e-06
-0.000225522
-0.000206529
-1.64686e-06
-8.84505e-07
-2.05054e-06
3.207e-07
-6.91284e-06
1.1019e-05
-1.5666e-05
2.25148e-05
-4.09908e-05
4.445e-05
-5.15508e-05
2.74998e-05
-5.54951e-05
2.05805e-05
-5.48194e-05
8.95096e-06
-5.27821e-05
1.98275e-06
-4.82445e-05
-1.43718e-06
-4.49927e-05
-2.52342e-06
-4.2421e-05
-2.4111e-06
-4.12222e-05
-1.94059e-06
-3.83594e-05
-4.61938e-06
-4.22927e-05
4.80862e-07
-2.65031e-05
-1.62107e-05
-4.01481e-05
-3.10328e-06
-3.42971e-05
-1.80002e-05
-2.88952e-05
-1.68696e-05
-1.16955e-05
-2.73397e-05
-6.18388e-06
-2.89155e-05
4.22443e-06
-2.46346e-05
-2.36457e-05
3.47361e-05
-1.26835e-05
1.1799e-05
-3.25328e-05
2.017e-05
-5.24753e-05
3.09615e-05
-8.65754e-05
5.6615e-05
-7.49828e-05
3.28574e-05
-9.43753e-05
4.68923e-05
-7.87321e-05
4.93731e-06
-6.61383e-05
-3.64285e-06
-5.58023e-05
-8.35327e-06
-4.70422e-05
-1.01973e-05
-4.07305e-05
-8.8351e-06
-3.65532e-05
-6.58842e-06
-3.16293e-05
-6.86447e-06
-3.09157e-05
-5.33297e-06
-2.153e-05
-8.90488e-06
-2.01778e-05
-1.75629e-05
-1.46323e-05
-8.64875e-06
-1.76513e-05
-1.49812e-05
-1.69478e-05
-1.75732e-05
-1.12314e-05
-3.30561e-05
-7.0968e-06
-3.30501e-05
-5.01835e-06
-2.67131e-05
-5.12993e-05
2.26352e-05
-4.10873e-05
5.28863e-05
-8.76652e-05
6.67479e-05
-0.000161447
0.000104744
-0.000158404
5.35717e-05
-0.000139165
1.36182e-05
-8.81627e-05
-4.10994e-06
-6.95645e-05
-1.36609e-05
-8.57879e-05
1.25806e-05
-7.5567e-05
-1.85741e-05
-6.6618e-05
-1.91462e-05
-5.22284e-05
-2.32247e-05
-4.37151e-05
-1.51017e-05
-4.01359e-05
-1.04437e-05
-4.10467e-05
-4.42214e-06
-4.53366e-05
-4.61504e-06
-4.37787e-05
-1.91207e-05
-3.68164e-05
-1.5611e-05
-3.40906e-05
-1.7707e-05
-3.64588e-05
-1.52049e-05
-4.23071e-05
-2.72078e-05
-3.61377e-05
-3.92194e-05
-1.46776e-05
-4.81733e-05
-6.38771e-05
-2.09969e-06
-7.25564e-05
0.000125443
-9.43234e-05
8.85148e-05
-8.19408e-05
9.23611e-05
-0.000156647
0.000128278
-0.0001595
1.64708e-05
-0.000147075
-1.65343e-05
-0.000136661
-2.40753e-05
-0.000125317
1.23676e-06
-0.000126017
-1.78745e-05
-7.12074e-05
-7.39555e-05
-6.63426e-05
-2.80896e-05
-6.39937e-05
-1.74506e-05
-0.000108312
3.38749e-05
-0.000119836
7.10147e-06
-7.98092e-05
-4.46418e-05
-7.48756e-05
-2.40543e-05
-5.93116e-05
-3.1175e-05
-8.89128e-05
1.18942e-05
-8.36771e-05
-2.04407e-05
-7.4359e-05
-3.65259e-05
-5.72527e-05
-5.63257e-05
-4.21015e-05
-6.33245e-05
-6.19569e-05
-4.40217e-05
-1.8163e-05
0.000143606
-3.11783e-05
0.00010153
-9.13828e-05
0.000152566
-5.65443e-05
9.34393e-05
-0.000121207
8.11338e-05
-0.000147145
9.40373e-06
-0.000155431
-1.57895e-05
-0.000142429
-1.17655e-05
-0.000140174
-2.01295e-05
-0.000177509
-3.66207e-05
-0.000178337
-2.72616e-05
-0.000181307
-1.44801e-05
-0.000160663
1.32304e-05
-0.0001406
-1.2961e-05
-0.000161837
-2.34054e-05
-0.000101025
-8.48662e-05
-0.000148266
1.60666e-05
-0.000141359
4.98721e-06
-0.000142948
-1.88523e-05
-0.000140095
-3.9379e-05
-7.4832e-05
-0.000121588
-0.000120673
-1.74831e-05
-7.03088e-05
-0.000112321
-1.26838e-05
0.00015629
-3.0723e-07
8.91535e-05
1.89004e-05
0.000133358
-3.06655e-05
0.000143005
-4.58013e-05
9.62697e-05
-0.000103566
6.7168e-05
-0.000146521
2.71662e-05
-0.000164375
6.08833e-06
-0.000172207
-1.22981e-05
-0.000188007
-2.08201e-05
-0.000196056
-1.92126e-05
-0.000193762
-1.67744e-05
-0.000174769
-5.7622e-06
-0.000168468
-1.9262e-05
-0.000130209
-6.16645e-05
-0.000188217
-2.68585e-05
-0.000158133
-1.40176e-05
-0.000118284
-3.4862e-05
-4.37072e-05
-9.34288e-05
-1.18072e-05
-7.1279e-05
-5.31984e-05
-8.01971e-05
-7.183e-05
1.1485e-06
-3.54653e-06
-0.000138592
1.90314e-06
0.000154386
-2.7182e-05
0.000118239
-1.4198e-05
0.000120374
5.18314e-06
0.000123624
-5.33642e-06
0.000106789
-2.92013e-05
9.10329e-05
-5.9848e-05
5.78129e-05
-0.000123705
6.99453e-05
-0.000157318
2.13147e-05
-0.00018407
5.93205e-06
-0.000216506
1.32232e-05
-0.000244933
1.16525e-05
-0.000273649
2.29543e-05
-0.00027583
-1.70807e-05
-0.000298697
-3.87978e-05
-0.000282475
-4.30806e-05
-0.000241959
-5.45336e-05
-0.000167114
-0.000109707
-0.000137726
-0.000122817
-5.67753e-05
-0.00015223
7.65436e-05
-0.000213516
0.000152309
-7.46172e-05
8.58402e-05
6.29228e-05
-4.00346e-06
0.00015839
-6.08469e-06
0.00012032
-3.31386e-07
0.000114621
4.03286e-06
0.00011926
-1.03525e-05
0.000121175
-1.84897e-05
9.91701e-05
-4.29772e-05
8.23004e-05
-7.50955e-05
0.000102064
-9.12465e-05
3.74657e-05
-0.000169018
8.37036e-05
-0.000204095
4.83003e-05
-0.000231689
3.92467e-05
-0.000283967
7.52323e-05
-0.000327022
2.5974e-05
-0.000332971
-3.28489e-05
-0.000348518
-2.75333e-05
-0.00034288
-6.0172e-05
-0.000352567
-0.00010002
-0.000292909
-0.000182476
-0.000330156
-0.000114983
-0.000334399
-0.000209273
-0.000168452
-0.000240564
7.49145e-05
-0.000157527
-4.54226e-06
0.000162932
-1.72091e-05
0.000132987
-1.08613e-05
0.000108273
-4.31619e-06
0.000112715
-1.67937e-05
0.000133652
-5.04022e-05
0.000132779
-8.3242e-05
0.00011514
-0.000118621
0.000137443
-0.000146874
6.57182e-05
-0.000168657
0.000105487
-0.000183721
6.33642e-05
-0.000218896
7.44217e-05
-0.000177363
3.36998e-05
-0.00019074
3.93504e-05
-0.000285635
6.20458e-05
-0.000335385
2.22177e-05
-0.000412194
1.66367e-05
-0.000470726
-4.14882e-05
-0.000548079
-0.000105123
-0.000458011
-0.00020505
-0.000552627
-0.000114657
-0.000684348
-0.000108843
-9.96797e-05
-0.000509754
-4.18367e-06
0.000167116
-1.43033e-05
0.000143106
-1.09644e-05
0.000104934
-7.73765e-06
0.000109488
-1.77937e-05
0.000143708
-4.20161e-05
0.000157001
-6.68174e-05
0.000139942
-6.39739e-05
0.000134599
-0.000160215
0.00016196
-0.00011231
5.75812e-05
-0.000197801
0.000148856
-0.000205165
8.17852e-05
-0.000280939
0.000109474
-0.000345416
0.000103828
-0.000370668
8.72975e-05
-0.000418387
6.99366e-05
-0.00045032
4.85695e-05
-0.000687911
0.000196103
-0.000846557
5.35232e-05
-0.00105778
6.17017e-06
-0.00113115
-4.12864e-05
-0.00115439
-8.56011e-05
-5.45819e-05
-0.00119949
-7.61655e-06
0.000174732
-1.81815e-05
0.000153671
-2.92147e-05
0.000115967
-3.50459e-06
8.37778e-05
-1.80454e-05
0.000158249
-3.42165e-05
0.000173172
-6.8459e-05
0.000174184
-9.18729e-05
0.000158013
-8.5108e-05
0.000155195
-0.000171148
0.000143621
-0.000206445
0.000184153
-0.000258629
0.000133969
-0.000287397
0.000138242
-0.000306361
0.000122792
-0.00029106
7.1996e-05
-0.000363499
0.000142376
-0.000448366
0.000133436
-0.000355756
0.000103493
-0.00039856
9.63265e-05
-0.000475049
8.26595e-05
-0.000690805
0.00017447
-0.000751663
-2.47437e-05
-1.6951e-05
-0.000789293
-7.1479e-06
0.00018188
-1.06553e-05
0.000157179
-1.48552e-05
0.000120167
-2.27353e-05
9.16579e-05
-3.83759e-05
0.000173889
-5.55966e-05
0.000190393
-7.61306e-05
0.000194718
-0.000104764
0.000186647
-0.000125902
0.000176333
-0.000141458
0.000159177
-0.000115176
0.000157871
-0.000117356
0.000136149
-0.000149799
0.000170685
-0.000180187
0.00015318
-0.000306504
0.000198314
-0.000351004
0.000186876
-0.000415294
0.000197726
-0.000493466
0.000181665
-0.000543743
0.000146604
-0.00053404
7.29561e-05
-0.000355859
-3.71019e-06
-0.000280029
-0.000100574
-2.35999e-05
-0.00027338
-7.17479e-06
0.000189055
-1.77747e-05
0.000167779
-2.6218e-05
0.00012861
-3.85256e-05
0.000103966
-4.95565e-05
0.00018492
-6.69271e-05
0.000207763
-8.85835e-05
0.000216374
-0.000123599
0.000221663
-7.39721e-05
0.000126706
-0.000151334
0.000236539
-0.000115842
0.000122379
-0.00022788
0.000248187
-0.000292241
0.000235046
-0.000290889
0.000151828
-0.000281473
0.000188897
-0.00036098
0.000266384
-0.000416881
0.000253627
-0.000460634
0.000225418
-0.000416056
0.000102026
-0.000396053
5.29535e-05
-0.000350461
-4.93018e-05
-0.000311899
-0.000139137
-0.000130083
-0.000205416
-7.40816e-06
0.000196463
-1.87682e-05
0.000179139
-2.30956e-05
0.000132938
-3.6475e-05
0.000117345
-4.86416e-05
0.000197087
-5.28736e-05
0.000211995
-5.61589e-05
0.00021966
-4.33691e-05
0.000208873
-0.000135861
0.000219198
-0.000156035
0.000256713
-0.000172952
0.000139296
-0.000189251
0.000264485
-0.000197701
0.000243496
-0.00021685
0.000170977
-0.00032176
0.000293807
-0.000190186
0.00013481
-0.000195881
0.000259322
-0.000202874
0.000232412
-0.000310404
0.000209555
-0.000219623
-3.78272e-05
-0.000223237
-4.56876e-05
-0.000326118
-3.62559e-05
-8.12037e-05
-0.000374997
-2.3503e-06
0.000198813
-4.09176e-06
0.00018088
-1.34717e-05
0.000142318
-8.38689e-05
0.000187742
-2.64261e-05
0.000139644
-3.87078e-05
0.000224277
-5.70207e-05
0.000237973
-7.17138e-05
0.000223566
-8.61931e-05
0.000233677
-6.78723e-05
0.000238392
-0.000168625
0.000240049
-0.000180478
0.000276338
-9.15528e-05
0.000154571
-0.000212431
0.000291855
-0.000175568
0.000256945
-0.000313095
0.000272336
-0.000346131
0.000292358
-0.000343729
0.00023001
-0.000221076
8.69013e-05
-0.000312027
5.31243e-05
-0.000328043
-2.96719e-05
-0.00031649
-4.78089e-05
-4.30664e-05
-0.000354627
-1.5447e-05
0.000214261
-2.52155e-05
0.000190649
-2.46605e-07
0.000117349
-5.31147e-06
0.000192807
-6.08468e-05
0.000195179
-5.77062e-05
0.000221137
-3.90278e-05
0.000219294
-7.37045e-05
0.000258243
-0.000102256
0.000262228
-0.000130676
0.000266813
-0.000157698
0.000267071
-8.54943e-05
0.000204134
-0.00014878
0.000217856
-0.000209118
0.000352193
-0.000145867
0.000193694
-0.000260501
0.000386971
-0.000159181
0.000191038
-0.000147515
0.000218344
-0.000246936
0.000186322
-0.000210585
1.67742e-05
-0.000217356
-2.2901e-05
-0.00025651
-8.65561e-06
3.328e-05
-0.000332856
-9.58182e-06
0.000223842
-1.3491e-05
0.000194558
-2.80348e-05
0.000131893
-6.28307e-05
0.000227603
-1.90689e-05
0.000151418
-2.80204e-05
0.000230088
-3.87415e-05
0.000230015
-3.75957e-05
0.000257097
-5.50741e-05
0.000279707
-8.14751e-05
0.000293214
-1.13473e-05
0.000196943
-9.84654e-05
0.000291252
-9.50771e-05
0.000214468
-0.000112069
0.000369185
-0.000169245
0.000250869
-0.000171292
0.000389018
-0.00019203
0.000211775
-0.000212738
0.000239052
-7.27581e-05
4.63422e-05
-5.23867e-05
-3.5972e-06
-4.87576e-05
-2.65302e-05
-0.000103566
4.61529e-05
0.000177088
-0.000247374
1.86651e-06
0.000221976
-9.64603e-06
0.00020607
-7.86142e-05
0.000200861
-2.01278e-05
0.000169117
-4.32174e-05
0.000174507
-5.41847e-05
0.000241055
-8.47106e-06
0.000184302
-2.36351e-05
0.000272261
-3.93254e-05
0.000295397
-3.53806e-05
0.000289269
-6.16082e-05
0.000223171
-4.33565e-05
0.000273001
-7.98938e-05
0.000251005
-6.5189e-05
0.00035448
-0.000220888
0.000406568
-0.000188446
0.000356576
-0.000380649
0.000403978
-0.000315489
0.000173892
-0.000305137
3.59897e-05
-0.000310841
2.10697e-06
-0.000329171
-8.20033e-06
-0.000308756
2.57384e-05
0.000179309
-0.000310977
1.89277e-06
0.000220083
7.65556e-06
0.000200308
2.40437e-05
0.000184473
-2.49428e-05
0.000218103
-9.5436e-05
0.000245
-7.89746e-06
0.000153517
-7.73597e-06
0.00018414
-1.33278e-05
0.000277853
-1.0975e-05
0.000293044
-1.14074e-05
0.000289702
-8.10037e-05
0.000292767
-1.33209e-07
0.00019213
-7.94054e-05
0.000330278
-8.18442e-05
0.000356919
-0.000130302
0.000455025
-0.000277316
0.000503591
-0.000373674
0.000500336
-0.000386989
0.000187207
-0.000409755
5.87561e-05
-0.000417612
9.96391e-06
-0.000422154
-3.65861e-06
-0.000387945
-8.47006e-06
0.000100829
-0.000309465
-3.19187e-06
0.000223275
6.44892e-08
0.000197051
-1.09833e-06
0.000185636
-7.56967e-06
0.000224574
2.94178e-06
0.000234489
1.89068e-05
0.000137552
-3.82827e-05
0.00024133
-2.15243e-05
0.000261094
-8.27653e-06
0.000279797
-1.27872e-05
0.000294212
-5.80005e-06
0.00028578
-1.48049e-05
0.000201135
-3.20604e-05
0.000347533
-7.70222e-05
0.000401881
-7.90225e-05
0.000457026
-0.000151381
0.000575949
-0.000228162
0.000577117
-0.000318278
0.000277322
-0.000333554
7.4033e-05
-0.00027682
-4.677e-05
-0.000298445
1.79661e-05
-0.00038837
8.14544e-05
0.000141765
-0.000429306
-3.63193e-06
0.000226907
5.22913e-07
0.000192896
6.7212e-07
0.000185486
-7.46513e-06
0.000232712
-1.287e-05
0.000239894
-1.67011e-05
0.000141383
-4.11586e-06
0.000228744
-4.6493e-06
0.000261628
3.47056e-06
0.000271677
4.05275e-06
0.00029363
-2.09698e-06
0.000291929
5.03532e-06
0.000194003
-3.16248e-06
0.000355731
-1.934e-05
0.000418058
-7.79811e-06
0.000445484
1.09529e-05
0.000557198
-3.18899e-05
0.00061996
-0.000220577
0.00046601
-0.000309387
0.000162843
-0.000402937
4.678e-05
-0.000456849
7.1878e-05
-0.000435676
6.02811e-05
0.000146628
-0.000440539
-2.45145e-06
0.000229358
-4.65265e-07
0.00019091
-1.35947e-06
0.00018638
-6.06025e-06
0.000237412
-3.5289e-06
0.000237362
-6.5939e-06
0.000144448
-7.25561e-06
0.000229406
1.27687e-05
0.000241603
1.78018e-05
0.000266644
2.66991e-05
0.000284733
1.95669e-05
0.000299062
1.49935e-05
0.000198576
1.86519e-05
0.000352073
2.42377e-05
0.000412472
4.52307e-05
0.000424491
8.0151e-05
0.000522278
0.000123237
0.000576874
8.85909e-05
0.000500656
-6.41049e-05
0.000315539
-0.000144892
0.000127567
-0.000158526
8.55119e-05
-0.000177663
7.94181e-05
0.000148318
-0.000179353
-8.41993e-07
0.0002302
1.0847e-06
0.000188983
1.97205e-06
0.000185493
1.15685e-05
0.000227816
2.79926e-05
0.000220938
-2.09564e-05
0.000193397
-8.59435e-06
0.000217044
1.77356e-05
0.000215273
2.04179e-05
0.000263961
2.52453e-05
0.000279906
3.7257e-05
0.00028705
2.77994e-05
0.000208034
5.2485e-05
0.000327387
7.54744e-05
0.000389483
7.56339e-05
0.000424331
0.00010845
0.000489462
0.000175927
0.000509396
0.000202012
0.000474571
0.000136569
0.000380982
7.78848e-05
0.000186252
6.61913e-05
9.72054e-05
-6.89741e-05
0.000214583
0.000138451
-5.91076e-05
5.56225e-06
0.000224638
2.90297e-06
0.000191643
-2.88238e-07
0.000188684
3.72163e-06
0.000223806
7.96213e-06
0.000216698
-1.25181e-06
0.000202611
-1.34276e-05
0.00022922
5.3053e-05
0.000148793
4.06171e-05
0.000276397
5.28912e-05
0.000267632
9.6256e-05
0.000243685
2.32048e-05
0.000281085
5.09997e-05
0.000299592
7.54788e-05
0.000365004
0.000106187
0.000393623
0.000217024
0.000378625
0.00029892
0.0004275
0.000365809
0.000407683
0.000359633
0.000387157
0.000394215
0.00015167
0.000250153
0.000241267
0.000204507
0.000260229
0.000277688
6.52704e-05
6.92363e-06
0.000217714
1.87714e-06
0.000196689
-1.9286e-07
0.000190754
1.53005e-05
0.000208313
2.70497e-05
0.000204949
1.46246e-05
0.000215036
3.29815e-05
0.000210863
2.8247e-05
0.000153527
4.74045e-05
0.00025724
4.23502e-05
0.000272686
4.39492e-05
0.000242086
7.13464e-05
0.000253688
6.67262e-05
0.000304212
9.97283e-05
0.000332002
0.000173187
0.000320165
0.000225278
0.000326534
0.0002886
0.000364178
0.00035358
0.000342702
0.000360122
0.000380615
0.000297766
0.000214027
0.00033673
0.000202303
0.000286939
0.00031002
0.000229134
0.000335492
4.35098e-05
0.000174205
2.636e-05
0.000213839
-2.45462e-06
0.000219569
-6.10459e-07
0.000206469
4.96971e-05
0.000154641
4.26866e-05
0.000222046
4.64746e-05
0.000207075
3.63854e-05
0.000163616
4.63597e-05
0.000247265
3.3652e-05
0.000285393
0.000110423
0.000165315
0.000110091
0.00025402
0.000124277
0.000290027
0.00013951
0.000316769
0.00011747
0.000342204
0.000259731
0.000184272
0.000268325
0.000355584
0.000231753
0.000379274
0.000424069
0.000188299
0.000460354
0.000177742
0.000326426
0.000336232
0.000341616
0.000294829
6.93232e-05
0.000501428
-3.93616e-06
0.000178141
-3.75777e-06
0.000213661
-2.15965e-05
0.000237408
4.17729e-05
0.000143099
2.82004e-05
0.000168214
3.24273e-05
0.00021782
0.000106374
0.000133128
3.18783e-05
0.000238112
4.74987e-05
0.000231645
5.57288e-05
0.000277163
3.51377e-05
0.000185906
0.000120375
0.000168783
8.66021e-05
0.0003238
8.30051e-05
0.000320366
0.000198338
0.000226871
0.000164122
0.000218488
0.000331146
0.000188561
0.000356553
0.000353867
0.000374609
0.000170242
0.000266138
0.000286213
0.000308587
0.000293782
0.000509478
9.39389e-05
0.000179698
0.000399103
-7.11057e-05
0.000249246
2.19089e-06
0.000140364
2.2261e-05
0.000217338
2.79385e-05
0.000137422
-2.15294e-05
0.000217681
5.33205e-05
0.00014297
4.88106e-05
0.000137638
7.6671e-05
0.000210251
7.24488e-05
0.000235867
8.48971e-05
0.000264715
9.69696e-05
0.000173834
7.55266e-05
0.000190226
8.99819e-05
0.000309344
0.000233229
0.000177119
0.000117633
0.000342467
0.000141002
0.000195119
0.000164451
0.000165112
0.000352419
0.000165899
0.000222755
0.000299907
0.000280378
0.000228589
0.000475968
9.81922e-05
0.000542618
2.7289e-05
9.72183e-05
0.000625098
-7.16785e-06
0.000256414
-3.71395e-06
0.00013691
1.17629e-05
0.000201861
1.20287e-05
0.000137156
3.46637e-05
0.000195046
3.82385e-05
0.000139395
4.23798e-05
0.000133497
3.08822e-05
0.000221749
0.000117879
0.00014887
0.000130619
0.000251975
4.86944e-05
0.000255758
6.35166e-05
0.000175403
0.000210849
0.000162012
0.000118832
0.000269136
0.000198249
0.00026305
0.00023404
0.000159328
0.000277311
0.000121841
0.000317941
0.000125269
0.00036834
0.000249508
0.00040327
0.000193659
0.000374209
0.000127253
0.000309699
9.17986e-05
4.17806e-05
0.000365137
-1.07454e-05
0.00026716
-4.77117e-06
0.000130936
-2.11857e-06
0.000199208
-3.54032e-06
0.000138578
4.79208e-05
0.000143585
4.55921e-05
0.000141724
2.89788e-05
0.00015011
0.000102998
0.00014773
0.00010089
0.000150978
8.11825e-05
0.000271682
0.000194459
0.000142482
0.000147384
0.000222479
8.28419e-05
0.000226553
0.000215544
0.000136434
0.000254874
0.000223719
0.000234822
0.00017938
0.000268917
8.77465e-05
0.000165516
0.00022867
0.000324339
9.06847e-05
0.000355188
0.00016281
0.000363597
0.000118844
0.000309174
0.000146222
1.71606e-05
0.000333794
-1.24775e-05
0.000279637
-1.29785e-05
0.000131437
4.94359e-05
0.000136794
5.81457e-05
0.000129868
5.23521e-05
0.000149379
5.86397e-05
0.000135436
6.87823e-05
0.000139968
7.72375e-05
0.000139275
9.45217e-05
0.000133694
0.000122486
0.000243718
0.000128041
0.000136927
0.00015005
0.000200471
0.000179915
0.000196688
0.000198486
0.000117863
0.000218245
0.00020396
0.000256678
0.000140948
0.000173821
0.000170604
0.000243051
0.000159439
0.00025589
7.78454e-05
0.000339466
7.92339e-05
0.000364425
9.38854e-05
0.00040559
0.000105056
9.21023e-05
0.000330649
9.15523e-06
0.000270482
1.61755e-05
0.000124417
1.57635e-05
0.000137206
2.24351e-05
0.000123196
4.24417e-05
0.000129372
5.17039e-05
0.000126174
6.45399e-05
0.000127132
7.8778e-05
0.000125037
9.46238e-05
0.000117848
0.000109954
0.000228388
3.89826e-05
0.000207898
0.000123755
0.000115698
0.000201178
0.000119265
0.000167067
0.000151974
0.000185162
0.000185865
0.000164219
0.000161891
0.000189034
0.000145789
0.000299308
4.91653e-05
0.000275536
0.000101617
0.000300484
5.42856e-05
0.000353587
4.07824e-05
0.000409781
4.88622e-05
2.3158e-05
0.000478726
2.34865e-05
0.000246995
2.71697e-05
0.000120734
3.83068e-05
0.000126069
4.14939e-05
0.000120009
4.99702e-05
0.000120896
5.5851e-05
0.000120293
6.41316e-05
0.000118851
7.28812e-05
0.000116287
8.3687e-05
0.000107042
0.000101995
0.000210079
0.000114004
0.000195889
0.000125835
0.000103868
0.000139996
0.000105104
0.000152356
0.000139614
0.000166988
0.000171232
0.000246828
8.20515e-05
0.000282941
0.000109676
0.00026924
6.28666e-05
0.000282472
8.83852e-05
0.000314134
2.26234e-05
0.000346584
8.33243e-06
0.000384315
1.11306e-05
-2.97416e-05
0.000437215
2.60331e-05
0.000220962
2.78468e-05
0.00011892
3.49905e-05
0.000118925
3.87469e-05
0.000116253
4.3772e-05
0.000115871
5.02055e-05
0.000113859
5.80364e-05
0.00011102
6.54006e-05
0.000108923
7.31348e-05
9.93082e-05
9.18838e-05
0.00019133
9.75218e-05
0.000190251
0.000100208
0.000101182
0.000110817
9.44953e-05
0.000157339
9.30918e-05
0.000172514
0.000156058
0.000108321
0.000146244
0.000139491
7.85056e-05
0.000172489
2.98687e-05
0.000262181
-1.30629e-06
0.000285609
-8.05119e-07
0.000311979
-1.80375e-05
0.000342712
-1.96022e-05
1.84478e-05
0.000294523
6.87673e-05
0.000152195
5.60887e-05
0.000131598
4.69505e-05
0.000128063
4.27298e-05
0.000120473
4.14353e-05
0.000117165
4.09325e-05
0.000114362
3.9968e-05
0.000111985
3.68003e-05
0.000112091
2.85264e-05
0.000107582
0.000104819
0.000115038
0.000111182
0.000183888
0.00010861
0.000103754
0.000113589
8.95158e-05
0.000113656
9.30254e-05
0.000125464
0.00014425
0.000183014
8.86931e-05
0.000209662
5.18576e-05
0.000205699
3.38322e-05
0.000219887
-1.54949e-05
0.000240725
-2.16429e-05
0.000301104
-7.84161e-05
0.000379447
-9.79456e-05
-1.82761e-05
0.000416171
1.17476e-05
0.000140447
2.15316e-05
0.000121814
2.70827e-05
0.000122512
3.15307e-05
0.000116025
3.52097e-05
0.000113486
3.91791e-05
0.000110393
4.3853e-05
0.000107311
5.06005e-05
0.000105343
5.83661e-05
9.98164e-05
7.20219e-05
0.000101382
8.62227e-05
0.000169687
9.05829e-05
9.93939e-05
9.85326e-05
8.15661e-05
0.000111871
7.9687e-05
0.000126064
0.000130057
0.000112911
0.000101846
6.96046e-05
9.51638e-05
0.000103504
-6.71856e-08
0.000123075
-3.50656e-05
0.000228879
-0.000127448
0.000310788
-0.000160324
0.00033855
-0.000125708
-5.27472e-05
0.000373021
1.54901e-05
0.000124957
2.05644e-05
0.00011674
2.62785e-05
0.000116798
2.97203e-05
0.000112583
3.2499e-05
0.000110708
3.41284e-05
0.000108763
3.47169e-05
0.000106722
3.62135e-05
0.000103847
3.62674e-05
9.97624e-05
3.90336e-05
9.8616e-05
0.000112812
9.59081e-05
7.62436e-05
0.000135963
8.4068e-05
7.37415e-05
4.57398e-05
0.000118015
4.94496e-05
0.000126347
6.26701e-05
8.86255e-05
0.000120386
3.74481e-05
0.000154591
-3.42727e-05
0.00018142
-6.18946e-05
0.000164894
-0.000110921
0.000134088
-0.000129518
0.000244247
-0.000235867
-0.000211267
0.000402767
8.15521e-06
0.000116802
1.1834e-05