/*--------------------------------*- C++ -*----------------------------------*\
| =========                 |                                                 |
| \\      /  F ield         | foam-extend: Open Source CFD                    |
|  \\    /   O peration     | Version:     4.1                                |
|   \\  /    A nd           | Web:         http://www.foam-extend.org         |
|    \\/     M anipulation  |                                                 |
\*---------------------------------------------------------------------------*/
FoamFile
{
    version     2.0;
    format      ascii;
    class       volScalarField;
    location    "0.15";
    object      alpha1;
}
// * * * * * * * * * * * * * * * * * * * * * * * * * * * * * * * * * * * * * //

dimensions      [0 0 0 0 0 0 0];

internalField   nonuniform List<scalar> 
2268
(
1
1
1
1
1
1
1
1
1
1
0.999999
0.999338
0.996222
0.996929
0.997298
0.991701
0.939266
0.717025
0.358849
0.155819
0.0818075
0.038858
0.0110581
1
1
1
1
1
1
1
1
1
1
0.999996
0.993976
0.958428
0.958132
0.980389
0.982723
0.912699
0.519046
0.166179
0.0879273
0.0710917
0.0503681
0.0110496
1
1
1
1
1
1
1
1
1
1
0.999986
0.97318
0.757143
0.801867
0.938766
0.966232
0.872537
0.480624
0.248408
0.11416
0.055403
0.0469572
0.021133
1
1
1
1
1
1
1
1
1
1
0.999978
0.94865
0.363491
0.393061
0.724485
0.926144
0.842056
0.581838
0.327352
0.0832487
0.00918023
0.0345397
0.0195642
1
1
1
1
1
1
1
1
1
1
0.999977
0.945077
0.232705
0.174416
0.704398
0.867559
0.827054
0.674086
0.300619
0.0447761
0.00327255
0.0224327
0.0178488
1
1
1
1
1
1
1
1
1
1
0.999965
0.949264
0.196647
0.199478
0.659479
0.731352
0.729357
0.373578
0.0651355
0.0133813
0.00216652
0.0125226
0.016081
1
1
1
1
1
1
1
1
1
1
0.999939
0.934658
0.199357
0.151316
0.240186
0.361356
0.337302
0.0635529
0.0318107
0.0123322
0.00229738
0.0071643
0.0144009
1
1
1
1
1
1
1
1
1
1
0.999893
0.949558
0.179982
0.209519
0.177381
0.151969
0.154148
0.126497
0.0812956
0.0263315
0.00431895
0.00484382
0.012756
0
0
5.55112e-16
3.33067e-16
0
1.27676e-15
8.88178e-16
0
0
5.55112e-17
2.77556e-16
0
0
0
0
4.996e-16
1.27676e-15
1.77636e-15
0
4.996e-16
0
1.77636e-15
6.66134e-16
1.66533e-16
1.72085e-15
2.77556e-15
7.21645e-16
9.4369e-16
1.77636e-15
1.72085e-15
2.498e-15
1.94289e-15
2.66454e-15
5.55112e-16
1.83187e-15
2.88658e-15
1.66533e-16
6.10623e-16
0
8.43769e-15
0
0
0
0
0
0
0
0
0
0
0
0
0
0
0
0
0
7.54952e-15
3.05589e-13
4.72955e-14
1.72085e-15
0
0
0
0
1.66533e-16
0
0
0
0
0
0
0
0
1.27676e-15
3.88578e-16
3.56437e-13
6.78135e-12
1.00436e-12
4.60743e-14
4.996e-16
0
0
0
0
1.11022e-16
0
0
0
0
0
0
0
0
1.11022e-16
5.12466e-11
1.04356e-10
1.40133e-11
6.73739e-13
2.52021e-14
0
0
0
0
0
0
0
0
0
0
0
0
6.66134e-16
1.77636e-15
3.27682e-09
1.23358e-09
1.20013e-10
5.88496e-12
2.45415e-13
8.9373e-15
5.55112e-16
3.33067e-16
1.11022e-16
4.44089e-16
0
1.11022e-16
0
0
0
9.4369e-16
0
1.44329e-15
2.33147e-15
5.59433e-08
1.06624e-08
7.59279e-10
2.56099e-11
6.50202e-13
1.44329e-14
1.66533e-15
5.55112e-16
6.66134e-16
0
0
1.66533e-15
1.66533e-16
0
1.83187e-15
2.44249e-15
3.88578e-16
1.55431e-15
2.27596e-15
1
1
1
1
1
1
1
1
1
0.999999
0.999669
0.994243
0.841882
0.799366
0.729156
0.630601
0.578574
0.464727
0.188738
0.0452191
0.00875367
0.00366795
0.0102272
1
1
1
1
1
1
1
1
1
0.999996
0.999129
0.980654
0.86576
0.699012
0.561054
0.360507
0.23541
0.116312
0.030253
0.00528016
0.00174298
0.00116078
0.0046275
1
1
1
1
1
1
1
1
1
0.999995
0.999417
0.987784
0.939528
0.781053
0.476884
0.210579
0.0869906
0.0396199
0.0179256
0.00753006
0.00278772
0.000667572
0.00182277
1
1
1
1
1
1
1
1
1
0.999993
0.999527
0.975791
0.928744
0.79069
0.485463
0.221639
0.101862
0.0488301
0.0208748
0.00736947
0.00216295
0.000388715
0.000700296
1
1
1
1
1
1
1
1
1
0.999985
0.999415
0.919521
0.625294
0.57824
0.420907
0.212933
0.103855
0.0537039
0.0263602
0.0128946
0.00531649
0.00112353
0.000718052
1
1
1
1
1
1
1
1
0.999999
0.999965
0.998282
0.841459
0.2938
0.265321
0.20319
0.123899
0.0563299
0.0201662
0.00694443
0.00202161
0.00117152
0.000384643
0.000526813
1
1
1
1
1
1
1
1
0.99999
0.99984
0.997679
0.915315
0.656344
0.525332
0.344459
0.178305
0.0817689
0.0348857
0.0138089
0.00431843
0.00117308
0.000179112
0.000341098
1
1
1
1
1
1
1
0.999998
0.999915
0.998919
0.996103
0.958627
0.86781
0.707996
0.487253
0.24821
0.102533
0.0434473
0.0160985
0.00446711
0.000967164
0.000115798
0.00016319
0.999999
1
1
1
1
0.999999
1
0.999979
0.999383
0.993064
0.988133
0.962897
0.851977
0.660944
0.473627
0.259608
0.0794128
0.0344627
0.0139659
0.00428507
0.000703308
6.40844e-05
5.81911e-05
0.999983
0.999996
1
0.999999
0.999999
0.999994
0.999997
0.999846
0.996119
0.962461
0.956491
0.870766
0.505267
0.254161
0.157989
0.064927
0.0110799
0.00139901
0.00036087
0.000686929
0.000236684
2.46785e-05
1.59622e-05
0.999809
0.99996
0.999995
0.999995
0.999995
0.999947
0.999971
0.998947
0.979028
0.847162
0.8561
0.735368
0.279447
0.107567
0.050717
0.0180829
0.00730996
0.00112874
8.68035e-05
0.000155804
5.78715e-05
7.44099e-06
3.51039e-06
0.998154
0.999634
0.999959
0.999964
0.999965
0.999622
0.999798
0.993491
0.902105
0.535893
0.590327
0.70753
0.26294
0.0889131
0.0294567
0.0213974
0.00968587
0.00448072
0.000285198
3.5003e-05
1.32533e-05
2.17793e-06
6.82504e-07
0.985152
0.997032
0.999694
0.999779
0.999766
0.997668
0.998773
0.964892
0.649763
0.262255
0.315354
0.724225
0.277079
0.0914903
0.0185036
0.00560997
0.00217514
0.00455015
0.000846625
7.92653e-05
1.15657e-05
1.61571e-06
2.06805e-07
0.904098
0.977635
0.997705
0.998997
0.998599
0.990112
0.992521
0.864302
0.453705
0.173652
0.207953
0.637252
0.249596
0.0845394
0.014176
0.00121712
0.000166745
0.00146158
0.00638187
0.00625021
0.00303242
0.000306968
6.78993e-06
0.591701
0.887281
0.986875
0.99594
0.992701
0.964641
0.964294
0.797149
0.381171
0.143818
0.156203
0.650749
0.134868
0.0262861
0.002372
0.0001315
6.88039e-05
0.000290305
0.000988954
0.00419389
0.00262651
0.000287578
8.21668e-06
0.223472
0.669216
0.948648
0.984945
0.972747
0.899739
0.9165
0.755044
0.262815
0.093396
0.0440018
0.350397
0.0444351
0.00250846
0.000214378
3.88311e-05
7.82157e-05
0.000359412
0.000929213
0.00151158
0.00141519
0.000151727
4.96293e-06
0.094887
0.406571
0.839807
0.944519
0.893161
0.724977
0.828916
0.695557
0.132247
0.021024
0.00737261
0.0498141
0.00292579
0.000406374
6.3717e-05
1.16064e-05
3.01472e-05
9.54722e-05
0.000267909
0.000378007
0.000329367
3.88228e-05
1.20558e-06
0.0659319
0.231485
0.728552
0.769071
0.715451
0.453811
0.588874
0.304607
0.0649223
0.00341141
0.00132664
0.00533312
0.000382256
0.000135798
4.71145e-05
3.72468e-06
1.79008e-06
4.65661e-06
1.0281e-05
2.79865e-05
6.98623e-05
7.62324e-06
2.03637e-07
0.079518
0.409585
0.617609
0.299773
0.46346
0.0840272
0.246829
0.0647821
0.0082104
0.00070846
0.000124688
0.000379373
6.28644e-05
5.48348e-05
4.47154e-05
4.3357e-06
1.95877e-07
2.40812e-07
1.11736e-06
3.69762e-06
9.05515e-06
1.05085e-06
2.52337e-08
0.00639292
0.0622909
0.168694
0.0662002
0.0770979
0.00621915
0.0480601
0.0291307
0.00385005
0.000296635
1.16022e-05
6.15062e-06
2.75267e-06
3.66763e-06
3.78684e-06
4.77279e-07
1.8575e-08
1.65197e-08
5.29172e-08
7.73235e-08
9.24985e-08
1.06871e-07
1.94314e-09
0.00253115
0.0114733
0.0528804
0.019908
0.00352716
0.00155036
0.00396014
0.00685478
0.00142365
0.000136964
5.99609e-06
4.85782e-07
3.21696e-07
4.70935e-07
4.48173e-07
1.66362e-08
6.08254e-10
7.27096e-10
2.46753e-09
4.75345e-09
7.8115e-09
9.02995e-09
1.35914e-10
0.000686222
0.000517127
0.00320415
0.000305867
0.000111311
0.00023434
0.000681996
0.0001714
0.000443443
4.19346e-05
6.06771e-06
2.70633e-07
3.34227e-09
1.83907e-09
1.80336e-09
1.60933e-10
4.89165e-11
1.09317e-11
6.58506e-11
1.87401e-10
4.6141e-10
5.04664e-10
7.41013e-12
0.000206592
2.63305e-05
6.92802e-06
6.30104e-07
4.31482e-06
3.22879e-05
8.28277e-05
2.72402e-06
4.77793e-05
6.97337e-06
1.29863e-06
1.87481e-07
2.14206e-10
3.39978e-12
3.34455e-13
1.16185e-13
6.82232e-14
2.33369e-13
1.17395e-12
5.3334e-12
1.92412e-11
1.98541e-11
3.27183e-13
3.77538e-05
5.14929e-06
4.72113e-07
5.15409e-08
7.171e-08
1.16953e-06
5.59689e-06
9.12267e-07
1.25163e-06
1.28504e-08
2.93153e-10
3.52376e-11
2.02666e-12
1.97065e-14
3.33067e-15
2.60902e-15
3.05311e-15
3.83027e-15
1.9873e-14
1.30063e-13
5.96245e-13
6.34437e-13
1.15463e-14
1.4364e-06
2.88891e-07
1.18615e-08
1.18431e-09
1.16927e-09
9.21811e-09
6.06731e-08
2.15001e-09
2.07768e-10
3.84665e-12
9.57678e-13
1.02102e-12
1.67644e-14
2.22045e-15
2.498e-15
3.05311e-15
2.27596e-15
1.72085e-15
3.27516e-15
4.71845e-15
1.55986e-14
1.69864e-14
1.72085e-15
1.45846e-08
1.7736e-09
2.35532e-10
3.47999e-11
4.60926e-12
3.61505e-12
1.27197e-11
1.56597e-13
2.00395e-14
3.71925e-15
3.77476e-15
5.82867e-15
2.05391e-15
3.10862e-15
3.44169e-15
1.94289e-15
3.60822e-15
3.83027e-15
2.9976e-15
3.38618e-15
2.33147e-15
1.11022e-15
1.88738e-15
1.28071e-10
3.05977e-11
4.40886e-12
7.08489e-13
6.2339e-14
7.93809e-15
2.27596e-15
1.05471e-15
2.22045e-15
2.05391e-15
7.21645e-16
2.44249e-15
2.94209e-15
2.44249e-15
2.16493e-15
1.9984e-15
2.33147e-15
2.16493e-15
2.498e-15
2.9976e-15
1.27676e-15
0
1.66533e-16
8.96561e-13
3.77698e-13
6.51701e-14
1.22125e-14
2.66454e-15
1.77636e-15
2.10942e-15
2.27596e-15
3.4972e-15
2.22045e-15
2.94209e-15
2.77556e-15
2.22045e-15
1.33227e-15
1.66533e-15
3.77476e-15
1.88738e-15
2.33147e-15
2.33147e-15
3.27516e-15
1.27676e-15
0
1.27676e-15
9.04832e-15
5.27356e-15
3.66374e-15
2.05391e-15
2.88658e-15
2.38698e-15
2.83107e-15
2.83107e-15
2.498e-15
3.27516e-15
2.94209e-15
1.94289e-15
2.60902e-15
2.88658e-15
3.05311e-15
3.94129e-15
2.22045e-15
2.83107e-15
2.88658e-15
2.55351e-15
1.55431e-15
0
1.22125e-15
3.16414e-15
1.05471e-15
3.66374e-15
2.88658e-15
3.10862e-15
2.66454e-15
3.21965e-15
1.94289e-15
2.9976e-15
2.44249e-15
2.88658e-15
3.33067e-15
2.88658e-15
2.60902e-15
2.77556e-15
1.77636e-15
2.72005e-15
2.44249e-15
2.16493e-15
3.88578e-16
7.77156e-16
1.66533e-16
2.44249e-15
3.16414e-15
1.77636e-15
3.88578e-15
3.05311e-15
1.77636e-15
2.55351e-15
2.94209e-15
4.55191e-15
3.9968e-15
2.10942e-15
2.83107e-15
2.66454e-15
3.33067e-15
2.94209e-15
2.33147e-15
1.38778e-15
3.66374e-15
1.94289e-15
2.22045e-15
3.16414e-15
2.66454e-15
2.22045e-16
2.38698e-15
3.38618e-15
1.88738e-15
2.33147e-15
3.38618e-15
2.44249e-15
1.44329e-15
2.05391e-15
4.44089e-15
3.60822e-15
1.66533e-15
3.33067e-15
3.88578e-15
2.10942e-15
2.9976e-15
2.60902e-15
1.55431e-15
2.33147e-15
3.44169e-15
1.11022e-15
3.16414e-15
7.21645e-16
0
6.10623e-16
2.05391e-15
2.44249e-15
3.9968e-15
2.72005e-15
8.32667e-16
2.9976e-15
3.38618e-15
3.16414e-15
2.44249e-15
3.33067e-15
2.44249e-15
2.94209e-15
2.33147e-15
3.44169e-15
3.27516e-15
2.66454e-15
2.66454e-15
2.60902e-15
2.44249e-15
2.27596e-15
3.21965e-15
0
0
1.94289e-15
2.05391e-15
2.27596e-15
3.10862e-15
1.88738e-15
2.66454e-15
3.10862e-15
3.05311e-15
1.27676e-15
2.05391e-15
3.10862e-15
1.88738e-15
1.72085e-15
2.55351e-15
2.44249e-15
3.55271e-15
2.55351e-15
2.77556e-15
2.55351e-15
3.10862e-15
1.33227e-15
3.88578e-16
0
1.22125e-15
8.88178e-16
3.60822e-15
3.88578e-15
3.21965e-15
3.66374e-15
2.66454e-15
4.4964e-15
2.66454e-15
2.55351e-15
3.10862e-15
2.33147e-15
2.94209e-15
1.55431e-15
2.83107e-15
2.83107e-15
2.05391e-15
2.88658e-15
2.498e-15
1.55431e-15
5.55112e-17
2.22045e-16
3.83027e-15
3.44169e-15
1.94289e-15
2.27596e-15
2.16493e-15
4.32987e-15
2.88658e-15
2.22045e-15
2.9976e-15
3.38618e-15
4.44089e-15
2.10942e-15
4.05231e-15
3.27516e-15
2.44249e-15
3.05311e-15
2.27596e-15
2.94209e-15
3.94129e-15
2.94209e-15
2.498e-15
2.16493e-15
0
6.66134e-16
4.16334e-15
5.55112e-16
2.38698e-15
2.60902e-15
2.94209e-15
2.72005e-15
2.77556e-15
2.88658e-15
2.38698e-15
2.498e-15
2.9976e-15
2.33147e-15
2.88658e-15
1.77636e-15
2.66454e-15
3.33067e-15
2.88658e-15
7.77156e-16
3.33067e-16
2.10942e-15
1.60982e-15
0
2.83107e-15
3.44169e-15
1.55431e-15
2.94209e-15
1.94289e-15
2.94209e-15
2.44249e-15
2.27596e-15
2.66454e-15
3.27516e-15
3.55271e-15
2.33147e-15
2.16493e-15
2.44249e-15
2.77556e-15
2.55351e-15
3.77476e-15
2.10942e-15
3.05311e-15
2.66454e-15
3.21965e-15
1.38778e-15
0
9.4369e-16
4.60743e-15
1.11022e-15
4.32987e-15
3.16414e-15
2.22045e-15
1.77636e-15
3.27516e-15
2.05391e-15
3.55271e-15
3.55271e-15
3.05311e-15
2.60902e-15
1.38778e-15
2.498e-15
2.33147e-15
1.83187e-15
4.16334e-15
3.44169e-15
2.38698e-15
3.10862e-15
2.60902e-15
5.55112e-16
1.44329e-15
2.38698e-15
3.88578e-16
1.94289e-15
9.99201e-16
6.66134e-16
2.60902e-15
1.27676e-15
1.77636e-15
1.55431e-15
4.21885e-15
1.4988e-15
1.4988e-15
2.27596e-15
2.88658e-15
5.55112e-16
1.05471e-15
3.27516e-15
2.60902e-15
3.83027e-15
4.16334e-15
3.55271e-15
1.05471e-15
8.32667e-16
7.77156e-16
0
3.88578e-16
0
0
0
0
0
0
0
2.77556e-16
0
0
1.11022e-16
0
0
0
1.05471e-15
1.66533e-16
0
0
2.55351e-15
2.16493e-15
1.83187e-15
8.32667e-16
0
0
0
2.77556e-16
3.33067e-16
0
1.27676e-15
0
6.10623e-16
0
0
0
0
0
0
3.33067e-16
0
0
5.55112e-16
3.4972e-15
1.60982e-15
0.00853462
0.00449336
1.50042e-06
2.46811e-06
0.00711491
0.00504166
0.00128904
0.000126749
0.00487343
0.00441125
0.00267499
0.000697548
0.00214154
0.00312177
0.00271283
0.00165489
0.00121375
0.0021566
0.00230999
0.0019255
0.000988619
0.00171079
0.00195295
0.00173153
0.000777193
0.00128791
0.00145326
0.0013087
0.000431859
0.000679442
0.00070971
0.000591977
0.000143608
0.000211604
0.000206902
0.000145043
3.3646e-05
4.41545e-05
4.02695e-05
2.33759e-05
5.90034e-06
6.71893e-06
5.59691e-06
2.73703e-06
8.34347e-07
8.15955e-07
6.07396e-07
2.55889e-07
9.02511e-08
8.50814e-08
5.57428e-08
2.03733e-08
6.92312e-08
9.84549e-09
4.48444e-09
1.43048e-09
6.47709e-08
2.63897e-09
3.59086e-10
8.98503e-11
3.79063e-08
8.79303e-10
4.02894e-11
5.65575e-12
8.78589e-09
1.96431e-10
5.62905e-12
3.97959e-13
1.40153e-09
3.09102e-11
6.93667e-13
3.33622e-14
1.58358e-10
3.50586e-12
6.03406e-14
2.38698e-15
1.07725e-11
2.54352e-13
3.10862e-15
0
7.39464e-13
1.58762e-14
0
7.77156e-16
3.76921e-14
1.44329e-15
5.55112e-16
0
1.33227e-15
0
0
0
0
4.996e-16
6.66134e-16
9.99201e-16
7.21645e-16
5.55112e-16
5.55112e-16
1.05471e-15
0
0
0
5.55112e-16
3.33067e-16
3.88578e-16
0
0
6.10623e-16
1.11022e-15
2.77556e-16
0
2.77556e-16
7.77156e-16
0
6.10623e-16
3.88578e-16
0
0
1.66533e-16
7.77156e-16
8.88178e-16
0
4.44089e-16
9.99201e-16
1.77636e-15
0
0
1.38778e-15
1.83187e-15
7.77156e-16
3.88578e-16
1.66533e-16
4.44089e-16
0
0
8.88178e-16
1.94289e-15
0
0
2.77556e-16
1.27676e-15
0
1.11022e-15
3.33067e-16
2.10942e-15
0
8.32667e-16
1.05471e-15
2.05391e-15
0
0
2.77556e-16
9.99201e-16
0
1.66533e-16
0
4.996e-16
0
0
1.66533e-16
5.55112e-16
0
2.9976e-15
2.55351e-15
0
3.88578e-16
0
8.85903e-07
1.17324e-07
6.01697e-09
2.55109e-10
7.45348e-12
1.76081e-13
4.60743e-15
2.05391e-15
2.498e-15
3.88578e-16
0
5.55112e-17
3.88578e-16
0
3.33067e-16
1.72085e-15
7.21645e-16
1.83187e-15
6.10623e-16
1.03618e-05
1.46955e-06
8.43787e-08
3.93895e-09
1.3181e-10
3.70426e-12
8.9595e-14
4.66294e-15
2.72005e-15
7.77156e-16
1.94289e-15
6.10623e-16
1.4988e-15
2.498e-15
1.72085e-15
5.55112e-16
3.33067e-16
2.05391e-15
4.996e-16
0.000115757
1.26516e-05
8.19274e-07
4.29141e-08
1.55935e-09
4.63571e-11
1.12399e-12
2.43694e-14
1.88738e-15
1.83187e-15
1.83187e-15
5.55112e-16
7.77156e-16
2.16493e-15
2.33147e-15
9.4369e-16
1.38778e-15
0
1.9984e-15
0.00045808
6.82638e-05
4.78795e-06
2.63665e-07
1.05302e-08
3.33196e-10
8.27927e-12
1.58762e-13
4.55191e-15
1.44329e-15
2.498e-15
7.21645e-16
1.60982e-15
3.55271e-15
2.16493e-15
2.33147e-15
1.38778e-15
8.88178e-16
2.22045e-15
0.000718684
0.000121746
9.74899e-06
5.48162e-07
2.037e-08
5.36151e-10
1.08699e-11
1.74416e-13
3.4972e-15
1.44329e-15
2.60902e-15
1.83187e-15
0
2.55351e-15
1.9984e-15
1.72085e-15
1.44329e-15
1.4988e-15
1.33227e-15
0.000700493
0.000131349
1.51979e-05
8.15035e-07
2.95256e-08
7.44139e-10
1.38373e-11
1.97509e-13
3.33067e-15
1.22125e-15
1.4988e-15
2.55351e-15
1.88738e-15
1.77636e-15
1.4988e-15
3.4972e-15
3.21965e-15
0
8.32667e-16
0.000487729
7.46551e-05
7.02947e-06
3.11869e-07
1.03171e-08
2.38754e-10
4.08834e-12
5.55667e-14
1.83187e-15
2.83107e-15
2.77556e-15
2.05391e-15
7.77156e-16
1.33227e-15
1.55431e-15
2.22045e-15
2.77556e-15
4.996e-16
7.21645e-16
0.000161327
1.91218e-05
1.59658e-06
8.66319e-08
2.50423e-09
5.43391e-11
8.89511e-13
1.39888e-14
2.22045e-15
1.9984e-15
1.66533e-15
2.27596e-15
2.33147e-15
1.4988e-15
2.55351e-15
2.44249e-15
1.9984e-15
9.99201e-16
1.66533e-15
3.02782e-05
3.08201e-06
2.24174e-07
1.1489e-08
3.08909e-10
6.33615e-12
1.02085e-13
2.72005e-15
2.44249e-15
3.27516e-15
1.4988e-15
2.27596e-15
1.05471e-15
1.11022e-15
2.22045e-15
0
2.88658e-15
5.55112e-17
1.9984e-15
4.0938e-06
3.71423e-07
2.44302e-08
1.23931e-09
4.10772e-11
7.38798e-13
1.25455e-14
2.16493e-15
2.60902e-15
2.77556e-15
9.99201e-16
3.38618e-15
2.66454e-15
2.38698e-15
2.16493e-15
1.66533e-15
1.9984e-15
5.55112e-16
1.44329e-15
4.24067e-07
3.48136e-08
2.10023e-09
1.01372e-10
3.54367e-12
8.43214e-14
1.9984e-15
2.33147e-15
1.66533e-15
2.16493e-15
8.88178e-16
2.44249e-15
1.4988e-15
1.72085e-15
1.38778e-15
1.72085e-15
1.55431e-15
0
0
3.58681e-08
2.67696e-09
1.47936e-10
6.72606e-12
2.33591e-13
8.16014e-15
1.27676e-15
2.55351e-15
1.11022e-15
2.498e-15
1.66533e-15
1.44329e-15
1.9984e-15
1.66533e-15
2.88658e-15
1.83187e-15
1.4988e-15
9.99201e-16
9.99201e-16
2.55586e-09
1.72312e-10
8.64298e-12
3.6765e-13
1.28231e-14
2.16493e-15
9.4369e-16
2.22045e-15
7.77156e-16
2.38698e-15
2.44249e-15
2.498e-15
1.66533e-15
1.44329e-15
2.33147e-15
2.38698e-15
2.05391e-15
7.21645e-16
1.11022e-15
1.61218e-10
9.38338e-12
4.19276e-13
1.79856e-14
1.27676e-15
1.11022e-15
1.72085e-15
1.4988e-15
2.60902e-15
2.88658e-15
1.77636e-15
1.38778e-15
2.83107e-15
2.9976e-15
1.33227e-15
1.9984e-15
1.11022e-15
0
1.33227e-15
9.17111e-12
4.58522e-13
1.77636e-14
1.9984e-15
2.94209e-15
2.83107e-15
4.996e-16
1.4988e-15
3.9968e-15
3.44169e-15
3.88578e-16
3.33067e-15
1.38778e-15
1.83187e-15
2.16493e-15
8.32667e-16
8.88178e-16
3.88578e-16
1.27676e-15
4.82114e-13
2.01505e-14
2.44249e-15
1.66533e-15
2.88658e-15
2.94209e-15
7.21645e-16
3.16414e-15
2.83107e-15
8.32667e-16
1.94289e-15
2.05391e-15
2.72005e-15
2.9976e-15
1.55431e-15
1.27676e-15
8.88178e-16
0
1.27676e-15
2.43139e-14
4.996e-16
1.9984e-15
2.88658e-15
1.83187e-15
3.21965e-15
2.94209e-15
2.72005e-15
2.05391e-15
7.77156e-16
1.33227e-15
1.22125e-15
1.83187e-15
6.66134e-16
3.38618e-15
1.94289e-15
2.60902e-15
0
3.66374e-15
1.38778e-15
0
2.10942e-15
1.72085e-15
3.05311e-15
2.38698e-15
1.72085e-15
2.498e-15
1.60982e-15
2.05391e-15
3.27516e-15
2.16493e-15
2.9976e-15
2.88658e-15
3.16414e-15
3.88578e-16
9.4369e-16
0
2.83107e-15
1.27676e-15
7.21645e-16
2.44249e-15
2.16493e-15
2.16493e-15
9.4369e-16
8.88178e-16
9.99201e-16
1.55431e-15
1.9984e-15
3.16414e-15
1.4988e-15
1.94289e-15
2.77556e-15
1.55431e-15
8.32667e-16
2.10942e-15
6.66134e-16
3.94129e-15
1.16573e-15
1.11022e-16
1.72085e-15
1.83187e-15
7.77156e-16
1.11022e-15
1.72085e-15
2.27596e-15
3.55271e-15
1.60982e-15
3.33067e-15
2.44249e-15
1.4988e-15
2.66454e-15
0
2.72005e-15
2.10942e-15
1.4988e-15
3.33067e-15
5.55112e-16
1.33227e-15
2.44249e-15
2.38698e-15
2.44249e-15
1.16573e-15
1.27676e-15
9.4369e-16
2.16493e-15
2.44249e-15
1.77636e-15
2.22045e-15
3.27516e-15
1.88738e-15
2.77556e-16
2.22045e-15
3.27516e-15
8.88178e-16
2.05391e-15
1.55431e-15
2.88658e-15
2.16493e-15
2.55351e-15
1.55431e-15
3.33067e-15
3.33067e-15
6.10623e-16
2.05391e-15
3.44169e-15
2.10942e-15
1.22125e-15
2.55351e-15
2.9976e-15
2.10942e-15
2.22045e-15
3.16414e-15
0
1.9984e-15
1.72085e-15
1.83187e-15
3.66374e-15
2.88658e-15
1.27676e-15
2.05391e-15
2.72005e-15
2.38698e-15
2.94209e-15
1.94289e-15
2.83107e-15
2.83107e-15
2.55351e-15
3.9968e-15
1.83187e-15
1.33227e-15
3.16414e-15
0
1.11022e-15
1.77636e-15
4.44089e-16
2.77556e-15
2.05391e-15
1.55431e-15
2.66454e-15
2.77556e-15
1.16573e-15
2.94209e-15
2.22045e-15
3.10862e-15
2.22045e-15
1.55431e-15
9.99201e-16
1.4988e-15
2.77556e-15
3.33067e-15
1.44329e-15
2.22045e-15
1.22125e-15
1.22125e-15
2.77556e-15
2.38698e-15
1.33227e-15
1.33227e-15
2.38698e-15
2.66454e-15
5.55112e-17
1.44329e-15
2.22045e-15
8.88178e-16
2.22045e-15
2.10942e-15
1.88738e-15
2.16493e-15
2.05391e-15
1.4988e-15
2.10942e-15
2.27596e-15
2.94209e-15
3.83027e-15
2.10942e-15
1.27676e-15
2.22045e-15
2.38698e-15
2.60902e-15
0
1.4988e-15
0
1.83187e-15
2.66454e-15
1.27676e-15
8.32667e-16
2.60902e-15
2.10942e-15
2.22045e-15
1.72085e-15
0
1.4988e-15
2.9976e-15
1.4988e-15
1.66533e-15
1.94289e-15
1.11022e-16
2.9976e-15
2.05391e-15
8.88178e-16
1.72085e-15
1.44329e-15
2.88658e-15
4.10783e-15
2.22045e-15
2.55351e-15
2.44249e-15
0
2.05391e-15
1.66533e-15
8.88178e-16
1.33227e-15
2.33147e-15
1.4988e-15
2.94209e-15
1.83187e-15
9.99201e-16
1.33227e-15
2.60902e-15
2.60902e-15
1.4988e-15
1.38778e-15
2.60902e-15
1.9984e-15
2.10942e-15
1.83187e-15
0
1.55431e-15
2.05391e-15
7.21645e-16
1.05471e-15
1.22125e-15
3.44169e-15
2.77556e-15
1.33227e-15
1.9984e-15
2.94209e-15
1.88738e-15
1.66533e-15
1.4988e-15
1.88738e-15
2.10942e-15
1.60982e-15
1.94289e-15
1.27676e-15
8.88178e-16
2.10942e-15
1.9984e-15
0
1.88738e-15
1.83187e-15
4.996e-16
1.88738e-15
9.4369e-16
1.22125e-15
1.9984e-15
8.88178e-16
8.88178e-16
2.60902e-15
4.44089e-16
2.33147e-15
2.498e-15
2.10942e-15
2.498e-15
6.10623e-16
2.94209e-15
1.4988e-15
3.88578e-16
2.72005e-15
2.22045e-15
0
2.16493e-15
1.33227e-15
1.22125e-15
2.55351e-15
1.66533e-15
3.27516e-15
1.22125e-15
1.55431e-15
1.9984e-15
1.4988e-15
2.83107e-15
2.10942e-15
1.83187e-15
1.88738e-15
1.05471e-15
7.77156e-16
3.16414e-15
2.38698e-15
2.38698e-15
3.77476e-15
1.77636e-15
1.88738e-15
1.60982e-15
3.27516e-15
1.66533e-15
2.22045e-15
2.94209e-15
2.72005e-15
2.33147e-15
1.05471e-15
1.55431e-15
5.55112e-17
2.10942e-15
3.33067e-16
0
1.88738e-15
1.77636e-15
1.94289e-15
8.88178e-16
6.10623e-16
2.44249e-15
1.83187e-15
1.4988e-15
1.66533e-15
1.33227e-15
2.498e-15
1.60982e-15
2.83107e-15
1.22125e-15
2.44249e-15
0
1.9984e-15
1.44329e-15
3.88578e-16
3.16414e-15
2.16493e-15
0
2.22045e-15
7.77156e-16
2.22045e-15
2.10942e-15
2.05391e-15
2.9976e-15
3.27516e-15
2.05391e-15
2.10942e-15
3.83027e-15
2.33147e-15
2.94209e-15
2.77556e-16
3.10862e-15
0
1.66533e-15
2.77556e-15
3.38618e-15
2.77556e-16
1.16573e-15
1.88738e-15
1.66533e-15
1.33227e-15
2.05391e-15
3.94129e-15
7.77156e-16
2.9976e-15
1.9984e-15
2.38698e-15
1.4988e-15
1.94289e-15
0
2.38698e-15
2.22045e-15
5.55112e-17
1.9984e-15
2.27596e-15
1.55431e-15
3.10862e-15
5.55112e-16
3.05311e-15
2.44249e-15
4.996e-16
1.4988e-15
1.9984e-15
9.4369e-16
9.99201e-16
2.22045e-15
1.27676e-15
3.05311e-15
2.27596e-15
1.60982e-15
1.9984e-15
0
6.66134e-16
2.16493e-15
2.88658e-15
2.55351e-15
1.11022e-15
1.83187e-15
2.83107e-15
1.66533e-15
1.16573e-15
2.44249e-15
1.9984e-15
2.38698e-15
2.10942e-15
1.11022e-15
2.77556e-15
0
2.22045e-15
1.22125e-15
7.21645e-16
8.88178e-16
1.94289e-15
1.55431e-15
2.05391e-15
6.10623e-16
1.77636e-15
0
2.77556e-15
2.60902e-15
2.27596e-15
1.60982e-15
2.72005e-15
1.88738e-15
1.9984e-15
2.16493e-15
0
8.32667e-16
1.11022e-15
1.05471e-15
2.05391e-15
3.33067e-16
2.27596e-15
3.9968e-15
2.22045e-15
2.83107e-15
0
1.83187e-15
1.4988e-15
2.60902e-15
1.05471e-15
2.16493e-15
1.60982e-15
2.22045e-15
9.4369e-16
4.996e-16
1.27676e-15
1.72085e-15
5.55112e-16
2.77556e-15
2.27596e-15
2.94209e-15
1.94289e-15
2.27596e-15
1.66533e-15
2.94209e-15
2.77556e-15
2.44249e-15
1.60982e-15
4.05231e-15
2.60902e-15
2.60902e-15
9.99201e-16
3.66374e-15
0
3.21965e-15
5.55112e-16
1.83187e-15
1.66533e-16
0
0
5.55112e-16
0
0
2.22045e-16
0
4.996e-16
3.33067e-16
1.33227e-15
0
7.21645e-16
0
7.77156e-16
8.32667e-16
3.88578e-16
0
3.88578e-16
2.77556e-15
2.38698e-15
2.05391e-15
1.72085e-15
1.11022e-15
7.21645e-16
1.27676e-15
1.83187e-15
1.66533e-15
1.27676e-15
2.55351e-15
2.498e-15
2.16493e-15
2.60902e-15
3.21965e-15
1.11022e-15
0
)
;

boundaryField
{
    leftWall
    {
        type            zeroGradient;
    }
    rightWall
    {
        type            zeroGradient;
    }
    lowerWall
    {
        type            zeroGradient;
    }
    atmosphere
    {
        type            inletOutlet;
        inletValue      uniform 0;
        value           nonuniform List<scalar> 
46
(
1.83187e-15
8.32667e-16
0
0
0
2.77556e-16
3.33067e-16
0
1.27676e-15
0
6.10623e-16
0
0
0
0
0
0
3.33067e-16
0
0
5.55112e-16
3.4972e-15
1.60982e-15
2.55351e-15
0
3.88578e-16
0
0
3.88578e-16
2.77556e-15
2.38698e-15
2.05391e-15
1.72085e-15
1.11022e-15
7.21645e-16
1.27676e-15
1.83187e-15
1.66533e-15
1.27676e-15
2.55351e-15
2.498e-15
2.16493e-15
2.60902e-15
3.21965e-15
1.11022e-15
0
)
;
    }
    defaultFaces
    {
        type            empty;
    }
}


// ************************************************************************* //
