/*--------------------------------*- C++ -*----------------------------------*\
| =========                 |                                                 |
| \\      /  F ield         | foam-extend: Open Source CFD                    |
|  \\    /   O peration     | Version:     4.1                                |
|   \\  /    A nd           | Web:         http://www.foam-extend.org         |
|    \\/     M anipulation  |                                                 |
\*---------------------------------------------------------------------------*/
FoamFile
{
    version     2.0;
    format      ascii;
    class       volScalarField;
    location    "0.15";
    object      C;
}
// * * * * * * * * * * * * * * * * * * * * * * * * * * * * * * * * * * * * * //

dimensions      [0 0 0 0 0 0 0];

internalField   nonuniform List<scalar> 
2268
(
1
1
1
1
1
1
1
1
1
1
0.999997
0.998676
0.992444
0.993858
0.994596
0.983403
0.878532
0.434049
-0.282302
-0.688361
-0.836385
-0.922284
-0.977884
1
1
1
1
1
1
1
1
1
1
0.999993
0.987953
0.916856
0.916264
0.960777
0.965446
0.825398
0.0380925
-0.667643
-0.824145
-0.857817
-0.899264
-0.977901
1
1
1
1
1
1
1
1
1
0.999999
0.999971
0.946361
0.514285
0.603733
0.877531
0.932463
0.745075
-0.0387523
-0.503184
-0.771679
-0.889194
-0.906086
-0.957734
1
1
1
1
1
1
1
1
1
1
0.999955
0.897301
-0.273018
-0.213877
0.44897
0.852287
0.684111
0.163675
-0.345295
-0.833503
-0.98164
-0.930921
-0.960872
1
1
1
1
1
1
1
1
1
1
0.999954
0.890153
-0.534591
-0.651168
0.408795
0.735117
0.654107
0.348172
-0.398762
-0.910448
-0.993455
-0.955135
-0.964302
1
1
1
1
1
1
1
1
1
1
0.99993
0.898528
-0.606706
-0.601044
0.318958
0.462704
0.458714
-0.252845
-0.869729
-0.973237
-0.995667
-0.974955
-0.967838
1
1
1
1
1
1
1
1
1
1
0.999877
0.869315
-0.601286
-0.697367
-0.519629
-0.277287
-0.325396
-0.872894
-0.936379
-0.975336
-0.995405
-0.985671
-0.971198
1
1
1
1
1
1
1
1
1
0.999999
0.999785
0.899115
-0.640035
-0.580963
-0.645238
-0.696063
-0.691704
-0.747007
-0.837409
-0.947337
-0.991362
-0.990312
-0.974488
-1
-1
-1
-1
-1
-1
-1
-1
-1
-1
-1
-1
-1
-1
-1
-1
-1
-1
-1
-1
-1
-1
-1
-1
-1
-1
-1
-1
-1
-1
-1
-1
-1
-1
-1
-1
-1
-1
-1
-1
-1
-1
-1
-1
-1
-1
-1
-1
-1
-1
-1
-1
-1
-1
-1
-1
-1
-1
-1
-1
-1
-1
-1
-1
-1
-1
-1
-1
-1
-1
-1
-1
-1
-1
-1
-1
-1
-1
-1
-1
-1
-1
-1
-1
-1
-1
-1
-1
-1
-1
-1
-1
-1
-1
-1
-1
-1
-1
-1
-1
-1
-1
-1
-1
-1
-1
-1
-1
-1
-1
-1
-1
-1
-1
-1
-1
-1
-1
-1
-1
-1
-1
-1
-1
-1
-1
-1
-1
-1
-1
-1
-1
-1
-1
-1
-1
-1
-1
-1
-1
-1
-1
-1
-1
-1
-1
-1
-1
-1
-1
-1
-1
1
1
1
1
1
1
1
1
1
0.999998
0.999338
0.988486
0.683764
0.598732
0.458313
0.261202
0.157149
-0.0705455
-0.622524
-0.909562
-0.982493
-0.992664
-0.979546
1
1
1
1
1
1
1
1
1
0.999992
0.998259
0.961309
0.731519
0.398024
0.122107
-0.278987
-0.529181
-0.767376
-0.939494
-0.98944
-0.996514
-0.997678
-0.990745
1
1
1
1
1
1
1
1
1
0.999989
0.998833
0.975568
0.879056
0.562106
-0.0462321
-0.578841
-0.826019
-0.92076
-0.964149
-0.98494
-0.994425
-0.998665
-0.996354
1
1
1
1
1
1
1
1
1
0.999987
0.999055
0.951582
0.857487
0.581379
-0.0290747
-0.556722
-0.796276
-0.90234
-0.95825
-0.985261
-0.995674
-0.999223
-0.998599
1
1
1
1
1
1
1
1
1
0.999971
0.99883
0.839042
0.250588
0.15648
-0.158186
-0.574135
-0.79229
-0.892592
-0.94728
-0.974211
-0.989367
-0.997753
-0.998564
1
1
1
1
1
1
1
1
0.999998
0.999931
0.996564
0.682917
-0.4124
-0.469359
-0.593619
-0.752202
-0.88734
-0.959668
-0.986111
-0.995957
-0.997657
-0.999231
-0.998946
1
1
1
1
1
1
1
0.999999
0.99998
0.999681
0.995357
0.83063
0.312689
0.0506634
-0.311082
-0.64339
-0.836462
-0.930229
-0.972382
-0.991363
-0.997654
-0.999642
-0.999318
1
1
1
1
1
1
1
0.999995
0.999831
0.997838
0.992206
0.917253
0.73562
0.415992
-0.0254939
-0.503581
-0.794933
-0.913105
-0.967803
-0.991066
-0.998066
-0.999768
-0.999674
0.999997
0.999999
1
1
1
0.999999
0.999999
0.999959
0.998766
0.986129
0.976267
0.925795
0.703953
0.321888
-0.0527462
-0.480783
-0.841174
-0.931075
-0.972068
-0.99143
-0.998593
-0.999872
-0.999884
0.999966
0.999993
0.999999
0.999999
0.999998
0.999988
0.999994
0.999692
0.992238
0.924922
0.912982
0.741533
0.0105344
-0.491677
-0.684022
-0.870146
-0.97784
-0.997202
-0.999278
-0.998626
-0.999527
-0.999951
-0.999968
0.999617
0.99992
0.999991
0.99999
0.99999
0.999895
0.999943
0.997894
0.958057
0.694323
0.7122
0.470736
-0.441105
-0.784866
-0.898566
-0.963834
-0.98538
-0.997743
-0.999826
-0.999688
-0.999884
-0.999985
-0.999993
0.996308
0.999267
0.999918
0.999928
0.999931
0.999244
0.999597
0.986983
0.80421
0.0717851
0.180655
0.415059
-0.47412
-0.822174
-0.941087
-0.957205
-0.980628
-0.991039
-0.99943
-0.99993
-0.999973
-0.999996
-0.999999
0.970303
0.994064
0.999388
0.999559
0.999532
0.995337
0.997546
0.929783
0.299525
-0.47549
-0.369292
0.44845
-0.445842
-0.817019
-0.962993
-0.98878
-0.99565
-0.9909
-0.998307
-0.999841
-0.999977
-0.999997
-1
0.808196
0.95527
0.995409
0.997993
0.997197
0.980223
0.985043
0.728604
-0.0925899
-0.652696
-0.584095
0.274503
-0.500809
-0.830921
-0.971648
-0.997566
-0.999667
-0.997077
-0.987236
-0.9875
-0.993935
-0.999386
-0.999986
0.183402
0.774563
0.973749
0.99188
0.985402
0.929282
0.928587
0.594299
-0.237658
-0.712364
-0.687594
0.301497
-0.730264
-0.947428
-0.995256
-0.999737
-0.999862
-0.999419
-0.998022
-0.991612
-0.994747
-0.999425
-0.999984
-0.553056
0.338433
0.897296
0.969889
0.945495
0.799479
0.832999
0.510089
-0.474369
-0.813208
-0.911996
-0.299207
-0.91113
-0.994983
-0.999571
-0.999922
-0.999844
-0.999281
-0.998142
-0.996977
-0.99717
-0.999697
-0.99999
-0.810226
-0.186857
0.679614
0.889038
0.786322
0.449953
0.657831
0.391114
-0.735505
-0.957952
-0.985255
-0.900372
-0.994148
-0.999187
-0.999873
-0.999977
-0.99994
-0.999809
-0.999464
-0.999244
-0.999341
-0.999922
-0.999998
-0.868136
-0.53703
0.457103
0.538141
0.430902
-0.0923788
0.177747
-0.390786
-0.870155
-0.993177
-0.997347
-0.989334
-0.999235
-0.999728
-0.999906
-0.999993
-0.999996
-0.999991
-0.999979
-0.999944
-0.99986
-0.999985
-1
-0.840964
-0.180829
0.235217
-0.400455
-0.0730806
-0.831946
-0.506342
-0.870436
-0.983579
-0.998583
-0.999751
-0.999241
-0.999874
-0.99989
-0.999911
-0.999991
-1
-1
-0.999998
-0.999993
-0.999982
-0.999998
-1
-0.987214
-0.875418
-0.662612
-0.8676
-0.845804
-0.987562
-0.90388
-0.941739
-0.9923
-0.999407
-0.999977
-0.999988
-0.999994
-0.999993
-0.999992
-0.999999
-1
-1
-1
-1
-1
-1
-1
-0.994938
-0.977053
-0.894239
-0.960184
-0.992946
-0.996899
-0.99208
-0.98629
-0.997153
-0.999726
-0.999988
-0.999999
-0.999999
-0.999999
-0.999999
-1
-1
-1
-1
-1
-1
-1
-1
-0.998628
-0.998966
-0.993592
-0.999388
-0.999777
-0.999531
-0.998636
-0.999657
-0.999113
-0.999916
-0.999988
-0.999999
-1
-1
-1
-1
-1
-1
-1
-1
-1
-1
-1
-0.999587
-0.999947
-0.999986
-0.999999
-0.999991
-0.999935
-0.999834
-0.999995
-0.999904
-0.999986
-0.999997
-1
-1
-1
-1
-1
-1
-1
-1
-1
-1
-1
-1
-0.999924
-0.99999
-0.999999
-1
-1
-0.999998
-0.999989
-0.999998
-0.999997
-1
-1
-1
-1
-1
-1
-1
-1
-1
-1
-1
-1
-1
-1
-0.999997
-0.999999
-1
-1
-1
-1
-1
-1
-1
-1
-1
-1
-1
-1
-1
-1
-1
-1
-1
-1
-1
-1
-1
-1
-1
-1
-1
-1
-1
-1
-1
-1
-1
-1
-1
-1
-1
-1
-1
-1
-1
-1
-1
-1
-1
-1
-1
-1
-1
-1
-1
-1
-1
-1
-1
-1
-1
-1
-1
-1
-1
-1
-1
-1
-1
-1
-1
-1
-1
-1
-1
-1
-1
-1
-1
-1
-1
-1
-1
-1
-1
-1
-1
-1
-1
-1
-1
-1
-1
-1
-1
-1
-1
-1
-1
-1
-1
-1
-1
-1
-1
-1
-1
-1
-1
-1
-1
-1
-1
-1
-1
-1
-1
-1
-1
-1
-1
-1
-1
-1
-1
-1
-1
-1
-1
-1
-1
-1
-1
-1
-1
-1
-1
-1
-1
-1
-1
-1
-1
-1
-1
-1
-1
-1
-1
-1
-1
-1
-1
-1
-1
-1
-1
-1
-1
-1
-1
-1
-1
-1
-1
-1
-1
-1
-1
-1
-1
-1
-1
-1
-1
-1
-1
-1
-1
-1
-1
-1
-1
-1
-1
-1
-1
-1
-1
-1
-1
-1
-1
-1
-1
-1
-1
-1
-1
-1
-1
-1
-1
-1
-1
-1
-1
-1
-1
-1
-1
-1
-1
-1
-1
-1
-1
-1
-1
-1
-1
-1
-1
-1
-1
-1
-1
-1
-1
-1
-1
-1
-1
-1
-1
-1
-1
-1
-1
-1
-1
-1
-1
-1
-1
-1
-1
-1
-1
-1
-1
-1
-1
-1
-1
-1
-1
-1
-1
-1
-1
-1
-1
-1
-1
-1
-1
-1
-1
-1
-1
-1
-1
-1
-1
-1
-1
-1
-1
-1
-1
-1
-1
-1
-1
-1
-1
-1
-1
-1
-1
-1
-1
-1
-1
-1
-1
-1
-1
-1
-1
-1
-1
-1
-1
-1
-1
-1
-1
-1
-1
-1
-1
-1
-1
-1
-1
-1
-1
-1
-1
-1
-1
-1
-1
-1
-1
-1
-1
-1
-1
-1
-1
-1
-1
-1
-1
-1
-1
-1
-1
-1
-1
-1
-1
-1
-1
-1
-1
-1
-1
-1
-1
-1
-1
-1
-1
-1
-1
-1
-1
-1
-1
-1
-1
-1
-1
-1
-1
-1
-1
-1
-1
-1
-1
-1
-1
-1
-1
-1
-1
-1
-1
-1
-1
-1
-1
-1
-1
-1
-1
-1
-1
-1
-1
-1
-1
-1
-1
-1
-1
-1
-1
-1
-1
-1
-1
-1
-1
-1
-1
-1
-1
-1
-1
-1
-1
-1
-0.982931
-0.991013
-0.999997
-0.999995
-0.98577
-0.989917
-0.997422
-0.999747
-0.990253
-0.991177
-0.99465
-0.998605
-0.995717
-0.993756
-0.994574
-0.99669
-0.997572
-0.995687
-0.99538
-0.996149
-0.998023
-0.996578
-0.996094
-0.996537
-0.998446
-0.997424
-0.997093
-0.997383
-0.999136
-0.998641
-0.998581
-0.998816
-0.999713
-0.999577
-0.999586
-0.99971
-0.999933
-0.999912
-0.999919
-0.999953
-0.999988
-0.999987
-0.999989
-0.999995
-0.999998
-0.999998
-0.999999
-0.999999
-1
-1
-1
-1
-1
-1
-1
-1
-1
-1
-1
-1
-1
-1
-1
-1
-1
-1
-1
-1
-1
-1
-1
-1
-1
-1
-1
-1
-1
-1
-1
-1
-1
-1
-1
-1
-1
-1
-1
-1
-1
-1
-1
-1
-1
-1
-1
-1
-1
-1
-1
-1
-1
-1
-1
-1
-1
-1
-1
-1
-1
-1
-1
-1
-1
-1
-1
-1
-1
-1
-1
-1
-1
-1
-1
-1
-1
-1
-1
-1
-1
-1
-1
-1
-1
-1
-1
-1
-1
-1
-1
-1
-1
-1
-1
-1
-1
-1
-1
-1
-1
-1
-1
-1
-1
-1
-1
-1
-1
-1
-1
-1
-1
-1
-1
-1
-1
-1
-1
-1
-0.999998
-1
-1
-1
-1
-1
-1
-1
-1
-1
-1
-1
-1
-1
-1
-1
-1
-1
-1
-0.999979
-0.999997
-1
-1
-1
-1
-1
-1
-1
-1
-1
-1
-1
-1
-1
-1
-1
-1
-1
-0.999768
-0.999975
-0.999998
-1
-1
-1
-1
-1
-1
-1
-1
-1
-1
-1
-1
-1
-1
-1
-1
-0.999084
-0.999863
-0.99999
-0.999999
-1
-1
-1
-1
-1
-1
-1
-1
-1
-1
-1
-1
-1
-1
-1
-0.998563
-0.999757
-0.999981
-0.999999
-1
-1
-1
-1
-1
-1
-1
-1
-1
-1
-1
-1
-1
-1
-1
-0.998599
-0.999737
-0.99997
-0.999998
-1
-1
-1
-1
-1
-1
-1
-1
-1
-1
-1
-1
-1
-1
-1
-0.999025
-0.999851
-0.999986
-0.999999
-1
-1
-1
-1
-1
-1
-1
-1
-1
-1
-1
-1
-1
-1
-1
-0.999677
-0.999962
-0.999997
-1
-1
-1
-1
-1
-1
-1
-1
-1
-1
-1
-1
-1
-1
-1
-1
-0.999939
-0.999994
-1
-1
-1
-1
-1
-1
-1
-1
-1
-1
-1
-1
-1
-1
-1
-1
-1
-0.999992
-0.999999
-1
-1
-1
-1
-1
-1
-1
-1
-1
-1
-1
-1
-1
-1
-1
-1
-1
-0.999999
-1
-1
-1
-1
-1
-1
-1
-1
-1
-1
-1
-1
-1
-1
-1
-1
-1
-1
-1
-1
-1
-1
-1
-1
-1
-1
-1
-1
-1
-1
-1
-1
-1
-1
-1
-1
-1
-1
-1
-1
-1
-1
-1
-1
-1
-1
-1
-1
-1
-1
-1
-1
-1
-1
-1
-1
-1
-1
-1
-1
-1
-1
-1
-1
-1
-1
-1
-1
-1
-1
-1
-1
-1
-1
-1
-1
-1
-1
-1
-1
-1
-1
-1
-1
-1
-1
-1
-1
-1
-1
-1
-1
-1
-1
-1
-1
-1
-1
-1
-1
-1
-1
-1
-1
-1
-1
-1
-1
-1
-1
-1
-1
-1
-1
-1
-1
-1
-1
-1
-1
-1
-1
-1
-1
-1
-1
-1
-1
-1
-1
-1
-1
-1
-1
-1
-1
-1
-1
-1
-1
-1
-1
-1
-1
-1
-1
-1
-1
-1
-1
-1
-1
-1
-1
-1
-1
-1
-1
-1
-1
-1
-1
-1
-1
-1
-1
-1
-1
-1
-1
-1
-1
-1
-1
-1
-1
-1
-1
-1
-1
-1
-1
-1
-1
-1
-1
-1
-1
-1
-1
-1
-1
-1
-1
-1
-1
-1
-1
-1
-1
-1
-1
-1
-1
-1
-1
-1
-1
-1
-1
-1
-1
-1
-1
-1
-1
-1
-1
-1
-1
-1
-1
-1
-1
-1
-1
-1
-1
-1
-1
-1
-1
-1
-1
-1
-1
-1
-1
-1
-1
-1
-1
-1
-1
-1
-1
-1
-1
-1
-1
-1
-1
-1
-1
-1
-1
-1
-1
-1
-1
-1
-1
-1
-1
-1
-1
-1
-1
-1
-1
-1
-1
-1
-1
-1
-1
-1
-1
-1
-1
-1
-1
-1
-1
-1
-1
-1
-1
-1
-1
-1
-1
-1
-1
-1
-1
-1
-1
-1
-1
-1
-1
-1
-1
-1
-1
-1
-1
-1
-1
-1
-1
-1
-1
-1
-1
-1
-1
-1
-1
-1
-1
-1
-1
-1
-1
-1
-1
-1
-1
-1
-1
-1
-1
-1
-1
-1
-1
-1
-1
-1
-1
-1
-1
-1
-1
-1
-1
-1
-1
-1
-1
-1
-1
-1
-1
-1
-1
-1
-1
-1
-1
-1
-1
-1
-1
-1
-1
-1
-1
-1
-1
-1
-1
-1
-1
-1
-1
-1
-1
-1
-1
-1
-1
-1
-1
-1
-1
-1
-1
-1
-1
-1
-1
-1
-1
-1
-1
-1
-1
-1
-1
-1
-1
-1
-1
-1
-1
-1
-1
-1
-1
-1
-1
-1
-1
-1
-1
-1
-1
-1
-1
-1
-1
-1
-1
-1
-1
-1
-1
-1
-1
-1
-1
-1
-1
-1
-1
-1
-1
-1
-1
-1
-1
-1
-1
-1
-1
-1
-1
-1
-1
-1
-1
-1
-1
-1
-1
-1
-1
-1
-1
-1
-1
-1
-1
-1
-1
-1
-1
-1
-1
-1
-1
-1
-1
-1
-1
-1
-1
-1
-1
-1
-1
-1
-1
-1
-1
-1
-1
-1
-1
-1
-1
-1
-1
-1
-1
-1
-1
-1
-1
-1
-1
-1
-1
-1
-1
-1
-1
-1
-1
-1
-1
-1
-1
-1
-1
-1
-1
-1
-1
-1
-1
-1
-1
-1
-1
-1
-1
-1
-1
-1
-1
-1
-1
-1
-1
-1
-1
-1
-1
-1
-1
-1
-1
-1
-1
-1
-1
-1
-1
-1
-1
-1
-1
-1
-1
-1
-1
-1
-1
-1
-1
-1
-1
-1
-1
-1
-1
-1
-1
-1
-1
-1
-1
-1
-1
-1
-1
-1
-1
-1
-1
-1
-1
-1
-1
-1
-1
-1
-1
-1
-1
-1
-1
-1
-1
-1
-1
-1
-1
-1
-1
-1
-1
-1
)
;

boundaryField
{
    leftWall
    {
        type            zeroGradient;
    }
    rightWall
    {
        type            zeroGradient;
    }
    lowerWall
    {
        type            zeroGradient;
    }
    atmosphere
    {
        type            zeroGradient;
    }
    defaultFaces
    {
        type            empty;
    }
}


// ************************************************************************* //
