/*--------------------------------*- C++ -*----------------------------------*\
| =========                 |                                                 |
| \\      /  F ield         | foam-extend: Open Source CFD                    |
|  \\    /   O peration     | Version:     4.1                                |
|   \\  /    A nd           | Web:         http://www.foam-extend.org         |
|    \\/     M anipulation  |                                                 |
\*---------------------------------------------------------------------------*/
FoamFile
{
    version     2.0;
    format      ascii;
    class       volScalarField;
    location    "0.15";
    object      C_0;
}
// * * * * * * * * * * * * * * * * * * * * * * * * * * * * * * * * * * * * * //

dimensions      [0 0 0 0 0 0 0];

internalField   nonuniform List<scalar> 
2268
(
1
1
1
1
1
1
1
1
1
1
0.999997
0.998734
0.992984
0.994518
0.994627
0.979758
0.855168
0.372872
-0.330156
-0.70636
-0.848897
-0.929338
-0.980224
1
1
1
1
1
1
1
1
1
1
0.999992
0.988244
0.919208
0.922771
0.96606
0.963604
0.793819
-0.0330409
-0.684239
-0.829172
-0.860526
-0.902584
-0.979967
1
1
1
1
1
1
1
1
1
0.999999
0.999969
0.945679
0.519386
0.634248
0.894081
0.929776
0.700658
-0.0964346
-0.51699
-0.785277
-0.892615
-0.909436
-0.959762
1
1
1
1
1
1
1
1
1
1
0.999951
0.892378
-0.258353
-0.151914
0.524444
0.848835
0.660347
0.138411
-0.400068
-0.861325
-0.984511
-0.933334
-0.962516
1
1
1
1
1
1
1
1
1
1
0.999951
0.882906
-0.527106
-0.653072
0.433462
0.723548
0.629055
0.277728
-0.508393
-0.934248
-0.995246
-0.957041
-0.965628
1
1
1
1
1
1
1
1
1
1
0.999926
0.893154
-0.609072
-0.616287
0.335968
0.436262
0.393018
-0.392018
-0.902623
-0.978781
-0.996016
-0.976095
-0.968935
1
1
1
1
1
1
1
1
1
1
0.999872
0.861583
-0.633211
-0.703027
-0.535088
-0.32891
-0.458291
-0.898515
-0.941162
-0.978454
-0.996056
-0.98617
-0.972177
1
1
1
1
1
1
1
1
1
0.999999
0.999771
0.88998
-0.651258
-0.603047
-0.665759
-0.712795
-0.713405
-0.744322
-0.853609
-0.954791
-0.992844
-0.990712
-0.975325
-1
-1
-1
-1
-1
-1
-1
-1
-1
-1
-1
-1
-1
-1
-1
-1
-1
-1
-1
-1
-1
-1
-1
-1
-1
-1
-1
-1
-1
-1
-1
-1
-1
-1
-1
-1
-1
-1
-1
-1
-1
-1
-1
-1
-1
-1
-1
-1
-1
-1
-1
-1
-1
-1
-1
-1
-1
-1
-1
-1
-1
-1
-1
-1
-1
-1
-1
-1
-1
-1
-1
-1
-1
-1
-1
-1
-1
-1
-1
-1
-1
-1
-1
-1
-1
-1
-1
-1
-1
-1
-1
-1
-1
-1
-1
-1
-1
-1
-1
-1
-1
-1
-1
-1
-1
-1
-1
-1
-1
-1
-1
-1
-1
-1
-1
-1
-1
-1
-1
-1
-1
-1
-1
-1
-1
-1
-1
-1
-1
-1
-1
-1
-1
-1
-1
-1
-1
-1
-1
-1
-1
-1
-1
-1
-1
-1
-1
-1
-1
-1
-1
-1
1
1
1
1
1
1
1
1
1
0.999998
0.999278
0.987064
0.668417
0.584898
0.441006
0.253319
0.139798
-0.144294
-0.699889
-0.929182
-0.986644
-0.993432
-0.980157
1
1
1
1
1
1
1
1
1
0.999991
0.998067
0.956513
0.689877
0.351164
0.0865037
-0.306858
-0.560729
-0.812981
-0.955176
-0.992816
-0.997299
-0.998039
-0.990779
1
1
1
1
1
1
1
1
1
0.999989
0.998632
0.97181
0.862535
0.499594
-0.137884
-0.629067
-0.846698
-0.930947
-0.969307
-0.987633
-0.995766
-0.998968
-0.996429
1
1
1
1
1
1
1
1
1
0.999986
0.998947
0.953047
0.861114
0.559127
-0.0811321
-0.589401
-0.813727
-0.911803
-0.963608
-0.987911
-0.996723
-0.999477
-0.998589
1
1
1
1
1
1
1
1
1
0.999971
0.998869
0.845092
0.26099
0.178203
-0.160326
-0.599916
-0.809521
-0.903867
-0.953636
-0.97765
-0.991365
-0.998361
-0.998614
1
1
1
1
1
1
1
1
0.999998
0.999939
0.996562
0.686467
-0.43094
-0.498287
-0.616745
-0.771583
-0.898971
-0.96495
-0.988562
-0.99679
-0.998011
-0.999456
-0.998952
1
1
1
1
1
1
1
1
0.999985
0.999748
0.995251
0.813005
0.234562
-0.0385967
-0.386611
-0.676042
-0.849105
-0.937164
-0.97622
-0.992905
-0.99817
-0.999754
-0.999325
1
1
1
1
1
1
1
0.999997
0.999877
0.998362
0.992707
0.90808
0.716699
0.390742
-0.0582389
-0.532851
-0.810227
-0.921189
-0.971512
-0.992503
-0.998488
-0.999833
-0.999707
0.999998
1
1
1
1
0.999999
1
0.999971
0.999069
0.989265
0.979964
0.931879
0.730302
0.359628
-0.0387886
-0.487419
-0.842736
-0.93267
-0.973367
-0.992331
-0.99884
-0.999896
-0.999904
0.999974
0.999994
0.999999
0.999999
0.999999
0.99999
0.999995
0.999778
0.993926
0.93937
0.926174
0.770865
0.0868937
-0.433286
-0.650916
-0.858956
-0.976008
-0.99703
-0.999217
-0.998597
-0.999581
-0.999957
-0.999975
0.999697
0.999937
0.999993
0.999992
0.999992
0.999913
0.999953
0.99844
0.965942
0.742298
0.748297
0.497333
-0.418783
-0.771832
-0.89047
-0.9637
-0.985493
-0.998014
-0.999836
-0.999698
-0.999899
-0.999987
-0.999995
0.996994
0.999404
0.999933
0.999939
0.999943
0.999358
0.999659
0.990102
0.836054
0.161755
0.25235
0.436819
-0.463125
-0.818447
-0.936992
-0.955404
-0.979503
-0.991021
-0.999413
-0.999929
-0.999977
-0.999996
-0.999999
0.975008
0.99503
0.999484
0.999615
0.999608
0.995922
0.997897
0.945273
0.360056
-0.436227
-0.331039
0.469487
-0.435594
-0.816047
-0.961926
-0.987714
-0.994971
-0.990583
-0.998304
-0.999835
-0.999977
-0.999997
-1
0.83203
0.961278
0.996027
0.998217
0.997555
0.982266
0.987326
0.767526
-0.0556121
-0.640873
-0.567981
0.278189
-0.476511
-0.819952
-0.969857
-0.997348
-0.999631
-0.996831
-0.986859
-0.987346
-0.993872
-0.999342
-0.999984
0.248433
0.795677
0.976379
0.992687
0.986975
0.934511
0.936316
0.631327
-0.194147
-0.699497
-0.669701
0.302941
-0.725596
-0.935068
-0.993731
-0.999695
-0.999868
-0.999434
-0.997991
-0.991617
-0.994773
-0.999414
-0.999983
-0.514392
0.374807
0.905304
0.97273
0.949604
0.808428
0.839447
0.542441
-0.407441
-0.784655
-0.902293
-0.272378
-0.899743
-0.993972
-0.999487
-0.999917
-0.999859
-0.999313
-0.998214
-0.997079
-0.997318
-0.999712
-0.99999
-0.79935
-0.153161
0.701406
0.900693
0.79558
0.458155
0.665827
0.424207
-0.720396
-0.947326
-0.982954
-0.892159
-0.993207
-0.999064
-0.999858
-0.999976
-0.999943
-0.99982
-0.999488
-0.999265
-0.999406
-0.999928
-0.999998
-0.86991
-0.506218
0.468689
0.593085
0.433501
-0.104634
0.205209
-0.322873
-0.850005
-0.991815
-0.996909
-0.987895
-0.999133
-0.9997
-0.999897
-0.999992
-0.999996
-0.999991
-0.999981
-0.99995
-0.999876
-0.999986
-1
-0.850967
-0.185916
0.247541
-0.334963
-0.0872184
-0.847741
-0.47374
-0.850674
-0.980806
-0.998339
-0.999701
-0.999114
-0.999863
-0.99988
-0.999901
-0.99999
-1
-1
-0.999998
-0.999994
-0.999984
-0.999998
-1
-0.987055
-0.875996
-0.646185
-0.85435
-0.864132
-0.988693
-0.899235
-0.93554
-0.991444
-0.999332
-0.999973
-0.999986
-0.999994
-0.999992
-0.999992
-0.999999
-1
-1
-1
-1
-1
-1
-1
-0.994599
-0.976846
-0.89101
-0.954525
-0.992941
-0.996786
-0.991583
-0.984244
-0.996837
-0.99969
-0.999987
-0.999999
-0.999999
-0.999999
-0.999999
-1
-1
-1
-1
-1
-1
-1
-1
-0.998521
-0.998938
-0.993305
-0.999317
-0.999769
-0.999499
-0.998551
-0.999639
-0.999022
-0.999906
-0.999987
-0.999999
-1
-1
-1
-1
-1
-1
-1
-1
-1
-1
-1
-0.999553
-0.999944
-0.999985
-0.999999
-0.999991
-0.999929
-0.999823
-0.999994
-0.999894
-0.999984
-0.999997
-1
-1
-1
-1
-1
-1
-1
-1
-1
-1
-1
-1
-0.999918
-0.999989
-0.999999
-1
-1
-0.999997
-0.999988
-0.999998
-0.999997
-1
-1
-1
-1
-1
-1
-1
-1
-1
-1
-1
-1
-1
-1
-0.999997
-0.999999
-1
-1
-1
-1
-1
-1
-1
-1
-1
-1
-1
-1
-1
-1
-1
-1
-1
-1
-1
-1
-1
-1
-1
-1
-1
-1
-1
-1
-1
-1
-1
-1
-1
-1
-1
-1
-1
-1
-1
-1
-1
-1
-1
-1
-1
-1
-1
-1
-1
-1
-1
-1
-1
-1
-1
-1
-1
-1
-1
-1
-1
-1
-1
-1
-1
-1
-1
-1
-1
-1
-1
-1
-1
-1
-1
-1
-1
-1
-1
-1
-1
-1
-1
-1
-1
-1
-1
-1
-1
-1
-1
-1
-1
-1
-1
-1
-1
-1
-1
-1
-1
-1
-1
-1
-1
-1
-1
-1
-1
-1
-1
-1
-1
-1
-1
-1
-1
-1
-1
-1
-1
-1
-1
-1
-1
-1
-1
-1
-1
-1
-1
-1
-1
-1
-1
-1
-1
-1
-1
-1
-1
-1
-1
-1
-1
-1
-1
-1
-1
-1
-1
-1
-1
-1
-1
-1
-1
-1
-1
-1
-1
-1
-1
-1
-1
-1
-1
-1
-1
-1
-1
-1
-1
-1
-1
-1
-1
-1
-1
-1
-1
-1
-1
-1
-1
-1
-1
-1
-1
-1
-1
-1
-1
-1
-1
-1
-1
-1
-1
-1
-1
-1
-1
-1
-1
-1
-1
-1
-1
-1
-1
-1
-1
-1
-1
-1
-1
-1
-1
-1
-1
-1
-1
-1
-1
-1
-1
-1
-1
-1
-1
-1
-1
-1
-1
-1
-1
-1
-1
-1
-1
-1
-1
-1
-1
-1
-1
-1
-1
-1
-1
-1
-1
-1
-1
-1
-1
-1
-1
-1
-1
-1
-1
-1
-1
-1
-1
-1
-1
-1
-1
-1
-1
-1
-1
-1
-1
-1
-1
-1
-1
-1
-1
-1
-1
-1
-1
-1
-1
-1
-1
-1
-1
-1
-1
-1
-1
-1
-1
-1
-1
-1
-1
-1
-1
-1
-1
-1
-1
-1
-1
-1
-1
-1
-1
-1
-1
-1
-1
-1
-1
-1
-1
-1
-1
-1
-1
-1
-1
-1
-1
-1
-1
-1
-1
-1
-1
-1
-1
-1
-1
-1
-1
-1
-1
-1
-1
-1
-1
-1
-1
-1
-1
-1
-1
-1
-1
-1
-1
-1
-1
-1
-1
-1
-1
-1
-1
-1
-1
-1
-1
-1
-1
-1
-1
-1
-1
-1
-1
-1
-1
-1
-1
-1
-1
-1
-1
-1
-1
-1
-1
-1
-1
-1
-1
-1
-1
-1
-1
-1
-1
-1
-1
-1
-1
-1
-1
-1
-1
-1
-1
-1
-0.983672
-0.992046
-0.999997
-0.999996
-0.986385
-0.991052
-0.998134
-0.999843
-0.990454
-0.991987
-0.995719
-0.998959
-0.99542
-0.994079
-0.994935
-0.997164
-0.997252
-0.995531
-0.995598
-0.996559
-0.99776
-0.996458
-0.996304
-0.996857
-0.99837
-0.997543
-0.997432
-0.99779
-0.999231
-0.998907
-0.99892
-0.999175
-0.999779
-0.999702
-0.999722
-0.999826
-0.999953
-0.999944
-0.999952
-0.999975
-0.999992
-0.999992
-0.999994
-0.999997
-0.999999
-0.999999
-0.999999
-1
-1
-1
-1
-1
-1
-1
-1
-1
-1
-1
-1
-1
-1
-1
-1
-1
-1
-1
-1
-1
-1
-1
-1
-1
-1
-1
-1
-1
-1
-1
-1
-1
-1
-1
-1
-1
-1
-1
-1
-1
-1
-1
-1
-1
-1
-1
-1
-1
-1
-1
-1
-1
-1
-1
-1
-1
-1
-1
-1
-1
-1
-1
-1
-1
-1
-1
-1
-1
-1
-1
-1
-1
-1
-1
-1
-1
-1
-1
-1
-1
-1
-1
-1
-1
-1
-1
-1
-1
-1
-1
-1
-1
-1
-1
-1
-1
-1
-1
-1
-1
-1
-1
-1
-1
-1
-1
-1
-1
-1
-1
-1
-1
-1
-1
-1
-1
-1
-1
-1
-1
-0.999998
-1
-1
-1
-1
-1
-1
-1
-1
-1
-1
-1
-1
-1
-1
-1
-1
-1
-1
-0.999981
-0.999998
-1
-1
-1
-1
-1
-1
-1
-1
-1
-1
-1
-1
-1
-1
-1
-1
-1
-0.999816
-0.999979
-0.999999
-1
-1
-1
-1
-1
-1
-1
-1
-1
-1
-1
-1
-1
-1
-1
-1
-0.999237
-0.999892
-0.999993
-1
-1
-1
-1
-1
-1
-1
-1
-1
-1
-1
-1
-1
-1
-1
-1
-0.998826
-0.999813
-0.999986
-0.999999
-1
-1
-1
-1
-1
-1
-1
-1
-1
-1
-1
-1
-1
-1
-1
-0.998888
-0.999811
-0.99998
-0.999999
-1
-1
-1
-1
-1
-1
-1
-1
-1
-1
-1
-1
-1
-1
-1
-0.999312
-0.999908
-0.999992
-1
-1
-1
-1
-1
-1
-1
-1
-1
-1
-1
-1
-1
-1
-1
-1
-0.99981
-0.999979
-0.999998
-1
-1
-1
-1
-1
-1
-1
-1
-1
-1
-1
-1
-1
-1
-1
-1
-0.999968
-0.999997
-1
-1
-1
-1
-1
-1
-1
-1
-1
-1
-1
-1
-1
-1
-1
-1
-1
-0.999996
-1
-1
-1
-1
-1
-1
-1
-1
-1
-1
-1
-1
-1
-1
-1
-1
-1
-1
-1
-1
-1
-1
-1
-1
-1
-1
-1
-1
-1
-1
-1
-1
-1
-1
-1
-1
-1
-1
-1
-1
-1
-1
-1
-1
-1
-1
-1
-1
-1
-1
-1
-1
-1
-1
-1
-1
-1
-1
-1
-1
-1
-1
-1
-1
-1
-1
-1
-1
-1
-1
-1
-1
-1
-1
-1
-1
-1
-1
-1
-1
-1
-1
-1
-1
-1
-1
-1
-1
-1
-1
-1
-1
-1
-1
-1
-1
-1
-1
-1
-1
-1
-1
-1
-1
-1
-1
-1
-1
-1
-1
-1
-1
-1
-1
-1
-1
-1
-1
-1
-1
-1
-1
-1
-1
-1
-1
-1
-1
-1
-1
-1
-1
-1
-1
-1
-1
-1
-1
-1
-1
-1
-1
-1
-1
-1
-1
-1
-1
-1
-1
-1
-1
-1
-1
-1
-1
-1
-1
-1
-1
-1
-1
-1
-1
-1
-1
-1
-1
-1
-1
-1
-1
-1
-1
-1
-1
-1
-1
-1
-1
-1
-1
-1
-1
-1
-1
-1
-1
-1
-1
-1
-1
-1
-1
-1
-1
-1
-1
-1
-1
-1
-1
-1
-1
-1
-1
-1
-1
-1
-1
-1
-1
-1
-1
-1
-1
-1
-1
-1
-1
-1
-1
-1
-1
-1
-1
-1
-1
-1
-1
-1
-1
-1
-1
-1
-1
-1
-1
-1
-1
-1
-1
-1
-1
-1
-1
-1
-1
-1
-1
-1
-1
-1
-1
-1
-1
-1
-1
-1
-1
-1
-1
-1
-1
-1
-1
-1
-1
-1
-1
-1
-1
-1
-1
-1
-1
-1
-1
-1
-1
-1
-1
-1
-1
-1
-1
-1
-1
-1
-1
-1
-1
-1
-1
-1
-1
-1
-1
-1
-1
-1
-1
-1
-1
-1
-1
-1
-1
-1
-1
-1
-1
-1
-1
-1
-1
-1
-1
-1
-1
-1
-1
-1
-1
-1
-1
-1
-1
-1
-1
-1
-1
-1
-1
-1
-1
-1
-1
-1
-1
-1
-1
-1
-1
-1
-1
-1
-1
-1
-1
-1
-1
-1
-1
-1
-1
-1
-1
-1
-1
-1
-1
-1
-1
-1
-1
-1
-1
-1
-1
-1
-1
-1
-1
-1
-1
-1
-1
-1
-1
-1
-1
-1
-1
-1
-1
-1
-1
-1
-1
-1
-1
-1
-1
-1
-1
-1
-1
-1
-1
-1
-1
-1
-1
-1
-1
-1
-1
-1
-1
-1
-1
-1
-1
-1
-1
-1
-1
-1
-1
-1
-1
-1
-1
-1
-1
-1
-1
-1
-1
-1
-1
-1
-1
-1
-1
-1
-1
-1
-1
-1
-1
-1
-1
-1
-1
-1
-1
-1
-1
-1
-1
-1
-1
-1
-1
-1
-1
-1
-1
-1
-1
-1
-1
-1
-1
-1
-1
-1
-1
-1
-1
-1
-1
-1
-1
-1
-1
-1
-1
-1
-1
-1
-1
-1
-1
-1
-1
-1
-1
-1
-1
-1
-1
-1
-1
-1
-1
-1
-1
-1
-1
-1
-1
-1
-1
-1
-1
-1
-1
-1
-1
-1
-1
-1
-1
-1
-1
-1
-1
-1
-1
-1
-1
-1
-1
-1
-1
-1
-1
-1
-1
-1
-1
-1
-1
-1
-1
-1
-1
-1
-1
-1
-1
-1
-1
-1
-1
-1
-1
-1
-1
-1
-1
-1
-1
-1
-1
-1
-1
-1
-1
-1
-1
-1
-1
-1
-1
-1
-1
-1
-1
-1
-1
-1
-1
-1
-1
-1
-1
-1
-1
-1
-1
-1
-1
-1
-1
-1
-1
-1
-1
-1
-1
-1
-1
-1
-1
-1
-1
-1
-1
-1
-1
-1
-1
-1
-1
-1
-1
-1
-1
-1
-1
-1
-1
-1
-1
-1
-1
-1
-1
-1
-1
-1
-1
)
;

boundaryField
{
    leftWall
    {
        type            zeroGradient;
    }
    rightWall
    {
        type            zeroGradient;
    }
    lowerWall
    {
        type            zeroGradient;
    }
    atmosphere
    {
        type            zeroGradient;
    }
    defaultFaces
    {
        type            empty;
    }
}


// ************************************************************************* //
