/*--------------------------------*- C++ -*----------------------------------*\
| =========                 |                                                 |
| \\      /  F ield         | foam-extend: Open Source CFD                    |
|  \\    /   O peration     | Version:     4.1                                |
|   \\  /    A nd           | Web:         http://www.foam-extend.org         |
|    \\/     M anipulation  |                                                 |
\*---------------------------------------------------------------------------*/
FoamFile
{
    version     2.0;
    format      ascii;
    class       volScalarField;
    location    "0.15";
    object      p;
}
// * * * * * * * * * * * * * * * * * * * * * * * * * * * * * * * * * * * * * //

dimensions      [1 -1 -2 0 0 0 0];

internalField   nonuniform List<scalar> 
2268
(
2025.78
2026.54
2011.97
2002.51
1969.55
1943.69
1887.36
1859.38
1783.5
1652.47
1722.21
1550.55
647.177
329.327
57.3281
-294.38
100.148
1026.25
1386.54
511.736
213.874
92.0513
56.6688
1967.59
1968.02
1953.44
1943.97
1911
1884.79
1827.03
1800.46
1724.7
1583.65
1629.23
1429.25
489.764
208.682
-296.438
-231.888
151.163
1512.23
492.235
192.709
165.467
114.295
53.6408
1908.19
1909.21
1894.92
1885.53
1853.02
1827.66
1774.71
1738.43
1664.45
1568.7
1562.22
1333.74
992.266
565.337
-474.876
-362.486
266.337
1505.16
874.938
297.959
107.704
96.96
56.0564
1852.05
1851.41
1837.13
1827.66
1795.3
1766.69
1718.65
1685.45
1599.56
1530.49
1522.07
1445.45
1189.16
918.799
230.67
-246.915
407.873
1390.92
1171.3
183.294
27.7653
61.9709
48.5882
1789.33
1792.21
1778.92
1769.66
1737.43
1706.57
1649.5
1635.36
1545.48
1477.11
1421.68
1501.57
567.797
-9.82475
409.216
33.8846
419.986
1071.53
1089.84
73.9921
23.9103
41.6571
42.2633
1740.99
1735.15
1721.96
1712.97
1680.54
1650.01
1590.38
1579.08
1453.29
1447.8
1374.64
1471.47
330.672
166.78
704.519
714.564
930.622
1181.16
139.378
28.8113
22.9312
28.8838
36.3548
1678.3
1676.41
1664.24
1655.46
1623.67
1594.88
1545.11
1516.3
1374.74
1411.87
1371.43
1393.65
313.67
-74.6182
418.026
1053.45
1186.96
142.246
52.1416
27.0003
22.8606
23.5925
29.8833
1621.47
1623.04
1608.25
1601.08
1567.16
1536.44
1465.41
1490.81
1340.98
1351.58
1311.4
1390.83
177.851
229.832
76.5489
138.383
366.741
369.522
174.52
39.1067
21.7959
20.6483
23.4862
0.953028
0.952535
0.949769
0.938491
0.920915
0.90939
0.89025
0.875714
0.857487
0.842491
0.824658
0.810436
0.785176
0.76401
0.753427
0.742208
0.735049
0.729686
0.727344
0.895062
0.894406
0.890959
0.879928
0.862174
0.850099
0.831219
0.816806
0.79859
0.783471
0.766216
0.753709
0.719956
0.705935
0.69418
0.683093
0.675936
0.670589
0.668245
0.83653
0.835736
0.832948
0.821529
0.80365
0.792355
0.772632
0.757833
0.739233
0.724077
0.706462
0.691685
0.66093
0.646786
0.634696
0.623667
0.616513
0.611187
0.608848
0.77702
0.777964
0.774953
0.763633
0.74519
0.731649
0.714426
0.698258
0.679268
0.664063
0.652346
0.62052
0.601445
0.586963
0.57468
0.563931
0.556805
0.551521
0.549192
0.717288
0.71771
0.716893
0.70573
0.687101
0.674492
0.655666
0.640875
0.619155
0.604501
0.588482
0.559812
0.542095
0.526582
0.514556
0.503894
0.496808
0.49157
0.489254
0.660044
0.659553
0.657272
0.64809
0.629124
0.61535
0.596512
0.579383
0.556244
0.548917
0.516372
0.498574
0.481021
0.465969
0.454025
0.443572
0.436535
0.431355
0.429055
0.605915
0.606651
0.603638
0.588597
0.571129
0.555764
0.537882
0.525087
0.493354
0.478096
0.457642
0.436271
0.420172
0.40478
0.393278
0.382948
0.375983
0.370865
0.368585
0.541961
0.544158
0.554306
0.531868
0.513743
0.497553
0.478267
0.459221
0.431064
0.41987
0.392436
0.374674
0.358857
0.343741
0.33221
0.322082
0.315166
0.310117
0.307855
1534.65
1528.2
1517.94
1508.68
1461.5
1437.32
1392.1
1364.79
1266.07
1230.08
1156.67
1153.32
1484.23
1395.32
1143.23
1277.34
1665.82
1588.7
616.34
65.0772
17.2063
14.6425
13.8104
1397.71
1416.93
1392.12
1383.24
1375.49
1339.98
1292.39
1266.85
1179.25
1095.81
1050.57
866.411
1175.9
1685.24
1839.04
1524.12
922.808
351.985
47.7387
12.2995
9.8281
8.64187
6.27366
1276.4
1265.34
1290.59
1281.88
1245.22
1215.77
1161.68
1141.4
1034.93
993.648
759.21
647.75
720.475
1205.48
1760.21
833.124
229.406
88.016
28.9424
8.99459
5.15288
5.72228
5.29663
1153.65
1152.49
1130.75
1175.64
1141.14
1152.37
1125.4
1053.48
927.051
759.32
702.486
652.442
605.284
967.272
1736.32
864.773
282.291
93.2744
25.6253
5.12284
2.51452
3.09936
2.11
1026.58
1018.93
996.83
952.905
935.818
928.233
856.674
871.644
896.38
762.785
837.378
715.627
1595.63
1706.54
1619.85
833.976
278.663
80.4293
21.8012
5.82769
0.65802
0.392197
-0.104343
926.831
923.5
908.517
904.972
870.317
857.724
816.104
803.136
802.984
701.751
686.342
1150.43
1295.98
1210.4
784.888
349.769
94.2287
13.0228
0.413389
-1.11886
-2.03025
-1.89609
-1.8972
818.871
817.616
801.559
812.807
762.116
725.551
680.488
696.747
609.471
612.359
594.451
665.257
1548.28
1821.56
1438.4
614.778
165.267
29.0866
2.7899
-1.97424
-2.6006
-2.43545
-2.46605
727.312
721.788
730.551
714.014
680.714
769.678
709.541
626.695
534.866
522.371
388.644
442.257
596.013
1356.5
1701.47
950.31
221.063
45.9866
3.52099
-3.61784
-3.79306
-2.92096
-2.7482
632.134
633.407
637.426
615.469
699.321
521.684
594.998
550.778
484.484
480.934
356.427
271.349
642.938
1343.12
1600.07
933.861
123.42
19.9394
-0.461408
-4.51839
-4.10666
-3.10011
-2.70827
538.02
541.394
550.312
565.444
618.653
563.401
535.566
514.811
458.935
373.385
338.244
634.222
1619.52
972.035
484.952
93.4879
-5.3014
-5.85569
-4.34441
-4.40787
-3.93961
-3.19026
-2.54788
440.085
438.211
439.233
407.477
339.617
440.469
423.467
432.241
417.026
740.808
658.033
1182.29
1098.93
259.472
66.6225
7.07225
-0.181804
-3.05592
-3.29559
-3.42989
-3.30554
-2.93773
-2.47808
339.17
336.921
324.88
278.19
299.181
295.619
340.347
367.666
539.976
1622.75
1652.13
1140.17
1042.8
198.95
26.8562
10.7891
-0.344282
-2.10892
-3.03225
-3.02971
-2.86588
-2.62841
-2.38912
274.182
265.011
258.629
356.274
202.539
369.973
301.434
433.689
1367.68
1008.92
1327.28
967.268
1069.44
201.282
8.74871
-1.2931
-3.22367
-2.76037
-2.98167
-2.87462
-2.73835
-2.5908
-2.36796
377.219
167.167
180.087
215.042
282.889
191.15
280.922
620.187
1593.31
547.377
755.514
1112.07
901.848
169.619
0.328557
-3.24795
-3.51954
-3.7547
-2.63636
-2.37331
-2.8724
-2.77462
-2.4755
1332.15
273.856
79.1288
110.819
134.455
159.249
229.62
820.188
1467.51
425.384
478.743
886.646
369.4
10.0959
-4.10222
-3.67554
-3.62904
-4.06227
-4.62876
-4.43492
-3.64608
-3.00054
-2.70337
694.798
999.146
46.8798
27.2385
13.011
154.992
60.2483
770.432
927.149
175.71
32.8489
1017.9
42.7746
-4.64323
-3.63377
-3.57486
-3.76987
-3.78372
-4.28988
-4.80145
-4.10469
-3.22638
-2.79917
51.2155
1201.71
431.089
74.1617
114.087
900.71
322.523
788.947
379.001
0.20568
-9.93148
54.9923
-4.56304
-3.36537
-3.39562
-3.60797
-3.39681
-3.48255
-3.65477
-4.42129
-3.77942
-3.30865
-2.84427
-40.7808
529.658
684.774
709.448
813.215
1249.77
1323.76
1001.55
84.2886
-7.23539
-5.76793
-3.68166
-3.48706
-3.4486
-3.46049
-3.38888
-3.27792
-3.46281
-3.77798
-3.73608
-3.44083
-3.20436
-2.90952
106.961
1114.61
1096.58
829.41
1113.21
174.861
836.439
84.3331
-5.94902
-4.71085
-4.10263
-3.79509
-3.58437
-3.60366
-3.51527
-3.29839
-3.37688
-3.42544
-3.26138
-3.33588
-3.55405
-3.17957
-2.99213
-8.43774
97.3973
541.743
64.4552
138.677
-1.34467
56.9221
21.2099
-2.40204
-3.65793
-3.68335
-3.57944
-3.69769
-3.54846
-3.35222
-3.37462
-3.46866
-3.51309
-3.42037
-3.44409
-3.05425
-3.1
-3.04748
-3.56208
0.0993992
68.3322
3.51909
-3.3606
-2.72842
-2.94351
-2.71105
-3.74475
-3.83334
-3.78726
-3.90934
-3.66837
-3.60349
-3.46184
-3.40197
-3.44798
-3.58284
-3.48972
-3.44654
-3.34366
-3.20825
-3.11322
-4.36369
-4.28948
-4.02755
-4.70975
-3.92028
-3.53437
-3.61981
-3.84469
-3.76711
-3.76305
-3.70393
-3.76482
-3.72519
-3.58957
-3.63435
-3.56518
-3.49287
-3.62651
-3.52348
-3.4457
-3.38107
-3.29944
-3.23402
-4.14986
-4.15771
-4.12989
-3.99465
-3.94441
-3.79848
-3.75347
-3.77068
-3.79839
-3.8134
-3.79684
-3.83281
-3.67299
-3.6466
-3.69394
-3.68989
-3.6713
-3.65939
-3.56022
-3.52593
-3.46054
-3.39556
-3.35112
-4.14237
-4.05096
-3.99413
-4.039
-3.93261
-3.97089
-3.92671
-3.89698
-3.85375
-3.84719
-3.82198
-3.81536
-3.78209
-3.72226
-3.76625
-3.74372
-3.72234
-3.7015
-3.65363
-3.61452
-3.55777
-3.50317
-3.45074
-4.06192
-4.09463
-4.08522
-4.0539
-4.01419
-3.95792
-3.92807
-3.98581
-3.94535
-3.94483
-3.94551
-3.93296
-3.91366
-3.85793
-3.87651
-3.90392
-3.83679
-3.76295
-3.76345
-3.70481
-3.66068
-3.6096
-3.55931
-4.17589
-4.16816
-4.15434
-4.13197
-4.09864
-4.07432
-4.04998
-3.9967
-4.00234
-3.99576
-3.9442
-3.92722
-3.90392
-3.92616
-3.92094
-3.91318
-3.8893
-3.88759
-3.83969
-3.80536
-3.76198
-3.72156
-3.67039
-4.23585
-4.23516
-4.22684
-4.21106
-4.1904
-4.16566
-4.1449
-4.13006
-4.11354
-4.09848
-4.07626
-4.06114
-4.06089
-3.9851
-4.02482
-3.95361
-3.97772
-3.97422
-3.95673
-3.91339
-3.8768
-3.84009
-3.78664
-4.32394
-4.31992
-4.31292
-4.29967
-4.28164
-4.261
-4.24347
-4.22116
-4.20124
-4.18487
-4.15387
-4.14232
-4.14791
-4.13214
-4.11634
-4.08686
-4.08493
-4.02621
-4.05765
-4.01726
-3.98588
-3.95138
-3.91342
-4.41499
-4.40974
-4.40137
-4.39249
-4.37971
-4.36476
-4.34989
-4.33288
-4.31986
-4.29953
-4.3027
-4.28632
-4.2703
-4.20344
-4.21573
-4.20982
-4.15703
-4.15589
-4.16951
-4.13471
-4.10419
-4.07192
-4.04278
-4.50674
-4.50191
-4.491
-4.48248
-4.4683
-4.44139
-4.43105
-4.42894
-4.41571
-4.40412
-4.37566
-4.38872
-4.36532
-4.34127
-4.34385
-4.27345
-4.28463
-4.2584
-4.24125
-4.26049
-4.22738
-4.19001
-4.16428
-4.59734
-4.59511
-4.58823
-4.586
-4.57869
-4.59276
-4.58539
-4.54466
-4.52566
-4.50564
-4.51099
-4.48781
-4.47254
-4.44996
-4.40633
-4.41767
-4.3702
-4.37899
-4.35093
-4.36572
-4.3356
-4.31331
-4.28952
-4.68979
-4.6876
-4.6828
-4.67614
-4.66896
-4.65368
-4.65091
-4.64553
-4.65589
-4.62722
-4.61657
-4.59712
-4.57253
-4.55873
-4.54231
-4.52873
-4.50514
-4.47223
-4.48444
-4.45464
-4.47314
-4.43556
-4.41588
-4.78565
-4.78363
-4.78147
-4.77599
-4.77661
-4.78262
-4.76221
-4.7381
-4.70914
-4.69435
-4.69583
-4.67963
-4.68745
-4.66536
-4.65296
-4.62083
-4.60215
-4.60274
-4.58953
-4.5721
-4.57635
-4.55559
-4.54076
-4.88471
-4.88321
-4.87913
-4.87092
-4.86814
-4.83513
-4.84465
-4.83048
-4.8293
-4.8316
-4.81856
-4.81325
-4.80751
-4.78146
-4.76758
-4.74546
-4.73923
-4.70646
-4.69742
-4.69864
-4.68815
-4.68828
-4.66763
-4.98346
-4.9812
-4.98029
-4.96865
-4.95989
-4.9616
-4.95999
-4.9652
-4.94463
-4.92729
-4.91794
-4.90762
-4.90495
-4.88926
-4.87435
-4.86224
-4.8362
-4.83281
-4.82444
-4.81228
-4.80499
-4.7878
-4.80126
-5.08494
-5.08309
-5.08405
-5.07282
-5.09766
-5.06602
-5.06495
-5.05021
-5.05368
-5.04709
-5.03925
-5.02454
-5.01423
-4.9983
-4.99115
-4.97711
-4.96459
-4.95387
-4.93631
-4.93213
-4.9295
-4.91007
-4.92245
-5.18397
-5.18307
-5.18244
-5.17845
-5.17779
-5.17356
-5.16668
-5.16102
-5.15163
-5.12998
-5.12162
-5.12535
-5.12905
-5.12053
-5.10477
-5.09131
-5.0814
-5.06574
-5.06225
-5.04917
-5.05003
-5.03605
-5.0406
-5.28749
-5.28572
-5.28466
-5.27908
-5.28114
-5.27367
-5.27076
-5.26623
-5.26244
-5.27394
-5.25482
-5.24419
-5.23832
-5.22822
-5.21995
-5.20823
-5.20264
-5.1851
-5.18354
-5.17557
-5.17313
-5.16248
-5.16519
-5.38574
-5.38622
-5.386
-5.38755
-5.38303
-5.38231
-5.38847
-5.37377
-5.3682
-5.35325
-5.3557
-5.34801
-5.34654
-5.33901
-5.33121
-5.32229
-5.31523
-5.30714
-5.30143
-5.2969
-5.29629
-5.29066
-5.28509
-5.49473
-5.49203
-5.48841
-5.47552
-5.48167
-5.47977
-5.46197
-5.47526
-5.47352
-5.47438
-5.47119
-5.46381
-5.46148
-5.45543
-5.44967
-5.44401
-5.43911
-5.43209
-5.42455
-5.42301
-5.41746
-5.41745
-5.40785
-5.574
-5.57723
-5.58463
-5.61685
-5.59863
-5.57935
-5.57676
-5.58057
-5.57168
-5.57378
-5.56745
-5.56815
-5.56777
-5.55809
-5.55571
-5.54995
-5.54732
-5.54417
-5.54439
-5.54209
-5.54196
-5.53937
-5.53943
-5.74237
-5.73884
-5.72444
-5.69968
-5.69531
-5.71113
-5.71106
-5.6864
-5.7145
-5.68095
-5.70788
-5.68425
-5.68527
-5.69253
-5.69114
-5.68747
-5.68586
-5.67943
-5.67288
-5.67283
-5.66753
-5.66886
-5.66464
2.55692
0.217659
0.628974
0.177806
3.61424
1.68642
0.851517
0.496337
4.69498
3.76913
1.61461
0.653957
0.894344
0.638894
0.902129
0.433353
-0.294271
-0.0434329
-0.120484
-0.420581
-1.6417
-1.10474
-0.795357
-0.759751
-2.48838
-2.03923
-1.25687
-0.601596
-2.5762
-2.13594
-1.43456
-0.82443
-2.30643
-1.913
-1.43982
-1.02448
-2.09551
-1.76682
-1.49565
-1.2492
-2.0942
-1.83285
-1.66364
-1.49466
-2.13066
-1.95662
-1.81356
-1.69289
-2.18398
-2.06868
-1.95477
-1.84437
-2.31612
-2.2101
-2.11656
-2.02654
-2.47466
-2.35922
-2.21716
-2.15422
-2.59394
-2.49796
-2.40475
-2.31762
-2.68122
-2.58959
-2.49552
-2.43128
-2.77638
-2.69521
-2.60827
-2.55923
-2.88106
-2.83941
-2.69458
-2.6806
-2.97969
-2.96292
-2.91595
-2.83989
-3.03066
-2.99185
-2.95657
-2.91238
-3.17482
-3.14211
-3.10234
-3.07146
-3.27323
-3.22787
-3.21602
-3.19667
-3.4224
-3.40751
-3.35354
-3.31388
-3.52302
-3.53957
-3.51849
-3.49979
-3.64182
-3.60687
-3.62331
-3.59643
-3.78529
-3.75981
-3.73588
-3.73849
-3.89405
-3.86608
-3.85533
-3.83503
-4.02347
-4.01629
-3.98938
-3.98059
-4.13764
-4.13632
-4.12647
-4.10083
-4.27533
-4.25201
-4.25805
-4.24259
-4.39416
-4.39697
-4.3689
-4.38104
-4.52438
-4.5141
-4.51466
-4.49845
-4.65082
-4.6427
-4.63185
-4.62485
-4.77586
-4.77225
-4.76611
-4.75548
-4.90389
-4.89907
-4.89101
-4.88509
-5.03384
-5.02562
-5.02189
-5.01657
-5.15674
-5.15334
-5.14831
-5.14391
-5.2888
-5.28268
-5.28008
-5.27515
-5.41457
-5.40759
-5.40643
-5.40251
-5.53725
-5.53555
-5.53577
-5.53079
-5.66563
-5.66375
-5.66443
-5.66347
0.460179
0.458281
0.423254
0.443803
0.429553
0.408149
0.388342
0.36417
0.339916
0.315361
0.296049
0.270478
0.264604
0.246837
0.236367
0.226438
0.219636
0.214694
0.21247
0.288326
0.349173
0.326136
0.332794
0.307026
0.285919
0.258032
0.234028
0.203579
0.184788
0.155056
0.151943
0.129122
0.11636
0.104843
0.0952567
0.0885628
0.0837818
0.081601
0.110952
0.112622
0.196195
0.216849
0.206574
0.162449
0.133537
0.102399
0.0745754
0.0428233
0.0374436
0.00967606
-0.00266833
-0.0172563
-0.0278531
-0.0372425
-0.043663
-0.0482908
-0.0504015
-0.0395014
0.00953559
0.0532034
0.104208
0.0798682
0.0422427
0.000273501
-0.0316452
-0.0652345
-0.076884
-0.106715
-0.120637
-0.13776
-0.150736
-0.161717
-0.170633
-0.176959
-0.181407
-0.183463
-0.346481
0.0316948
-0.0677302
-0.0466377
-0.0387739
-0.0871705
-0.124528
-0.157465
-0.187468
-0.21725
-0.237103
-0.257908
-0.272445
-0.28624
-0.296513
-0.305257
-0.311322
-0.315604
-0.317581
-0.133196
0.0260802
0.0899639
-0.154984
-0.157525
-0.210288
-0.261069
-0.296695
-0.331348
-0.352708
-0.37704
-0.394334
-0.409706
-0.422369
-0.432519
-0.44083
-0.446679
-0.450766
-0.452662
0.00630304
0.0653291
0.0271501
-0.259146
-0.309277
-0.346433
-0.40012
-0.433734
-0.467139
-0.492747
-0.514317
-0.532786
-0.547182
-0.559872
-0.569496
-0.577506
-0.583066
-0.586956
-0.588753
-0.272515
-0.157285
-0.258507
-0.284065
-0.474957
-0.498045
-0.547595
-0.578684
-0.6129
-0.634342
-0.656131
-0.67281
-0.686725
-0.698506
-0.707559
-0.715082
-0.720293
-0.72395
-0.725634
-0.604962
-0.473762
-0.491496
-0.491104
-0.642906
-0.649738
-0.702004
-0.726038
-0.758928
-0.778706
-0.797579
-0.814417
-0.826869
-0.838304
-0.846647
-0.853767
-0.858582
-0.862004
-0.863556
-0.963806
-0.813774
-0.766234
-0.778046
-0.764974
-0.827756
-0.862344
-0.876471
-0.910001
-0.924679
-0.94276
-0.957537
-0.968866
-0.979126
-0.986593
-0.993062
-0.997408
-1.00054
-1.00195
-1.27088
-1.10123
-1.02757
-0.988617
-1.01044
-0.974701
-1.0337
-1.0311
-1.06294
-1.07419
-1.08654
-1.10243
-1.11122
-1.12114
-1.1276
-1.13363
-1.13744
-1.14031
-1.14154
-1.51264
-1.34916
-1.25736
-1.20852
-1.18796
-1.19937
-1.19555
-1.17562
-1.22051
-1.22296
-1.23407
-1.24827
-1.25539
-1.26371
-1.26909
-1.27425
-1.27751
-1.28002
-1.2811
-1.70557
-1.55782
-1.46375
-1.40349
-1.3789
-1.3654
-1.3593
-1.37327
-1.37312
-1.37505
-1.37468
-1.39572
-1.39971
-1.40744
-1.41172
-1.41648
-1.41903
-1.42128
-1.42213
-1.87456
-1.73454
-1.64824
-1.58548
-1.55357
-1.53778
-1.52905
-1.52608
-1.52767
-1.53211
-1.54214
-1.54386
-1.54556
-1.5513
-1.55433
-1.55796
-1.56002
-1.5618
-1.56252
-2.04101
-1.91509
-1.82905
-1.75535
-1.72408
-1.70504
-1.68899
-1.68568
-1.6835
-1.68604
-1.68612
-1.69066
-1.6925
-1.69723
-1.69935
-1.70277
-1.70384
-1.70551
-1.70589
-2.18961
-2.07173
-1.9868
-1.92435
-1.896
-1.8602
-1.8532
-1.84152
-1.83973
-1.84235
-1.83785
-1.84006
-1.84042
-1.84256
-1.84419
-1.84623
-1.84685
-1.84786
-1.84819
-2.33932
-2.22876
-2.15068
-2.08912
-2.0544
-2.03401
-2.01447
-2.00085
-1.99449
-1.98539
-1.98785
-1.98728
-1.98774
-1.98922
-1.98987
-1.99219
-1.99125
-1.99244
-1.99233
-2.48346
-2.38818
-2.30983
-2.25564
-2.22541
-2.18737
-2.16698
-2.15851
-2.14826
-2.14173
-2.13825
-2.13611
-2.1365
-2.13397
-2.1348
-2.13367
-2.13509
-2.13529
-2.13544
-2.63719
-2.55082
-2.51377
-2.40958
-2.36345
-2.34734
-2.32398
-2.31067
-2.2985
-2.29348
-2.28689
-2.2843
-2.27899
-2.28154
-2.28021
-2.28037
-2.28008
-2.27998
-2.27982
-2.81386
-2.68112
-2.61128
-2.54999
-2.53485
-2.50545
-2.47547
-2.4621
-2.44707
-2.4398
-2.4352
-2.43143
-2.42972
-2.42756
-2.42509
-2.42464
-2.42352
-2.42313
-2.42283
-2.85653
-2.81936
-2.76987
-2.72367
-2.67939
-2.63369
-2.62995
-2.61371
-2.59723
-2.58911
-2.58289
-2.57761
-2.57485
-2.57217
-2.5702
-2.56926
-2.56799
-2.56727
-2.56683
-3.01995
-2.95523
-2.90695
-2.85859
-2.82623
-2.8036
-2.77762
-2.75456
-2.7425
-2.73676
-2.73049
-2.72379
-2.71966
-2.71706
-2.71446
-2.71315
-2.71168
-2.71046
-2.70988
-3.15584
-3.08977
-3.04242
-3.00441
-2.97265
-2.94433
-2.92255
-2.90114
-2.89697
-2.88309
-2.87522
-2.86979
-2.8656
-2.8617
-2.85821
-2.8566
-2.85539
-2.85448
-2.85348
-3.25039
-3.23144
-3.19308
-3.1474
-3.11416
-3.09093
-3.07003
-3.05479
-3.03868
-3.02786
-3.01817
-3.01388
-3.01065
-3.00413
-3.00213
-3.00055
-2.99935
-2.99822
-2.99639
-3.47624
-3.35793
-3.2998
-3.29531
-3.26696
-3.23472
-3.21331
-3.19722
-3.18716
-3.17297
-3.16739
-3.15878
-3.15357
-3.14825
-3.14741
-3.14369
-3.14259
-3.14046
-3.13943
-3.5777
-3.55022
-3.52686
-3.41921
-3.3803
-3.38197
-3.36633
-3.33973
-3.32875
-3.31797
-3.31271
-3.30182
-3.2986
-3.29273
-3.29064
-3.28745
-3.28595
-3.28482
-3.28578
-3.71275
-3.70423
-3.6524
-3.63584
-3.59971
-3.51236
-3.48381
-3.48145
-3.48763
-3.46069
-3.45463
-3.44732
-3.44443
-3.43702
-3.4344
-3.42974
-3.42855
-3.42759
-3.42945
-3.81022
-3.76402
-3.7985
-3.7464
-3.73412
-3.7146
-3.69827
-3.62043
-3.59949
-3.60415
-3.60893
-3.58753
-3.5841
-3.57574
-3.57804
-3.57628
-3.57464
-3.57315
-3.57342
-3.9625
-3.93653
-3.88094
-3.91503
-3.87252
-3.84779
-3.83368
-3.82483
-3.80947
-3.74178
-3.72538
-3.73556
-3.73646
-3.72546
-3.72206
-3.71193
-3.71106
-3.71045
-3.71315
-4.08169
-4.05738
-4.0444
-3.99342
-4.03123
-3.99247
-3.98324
-3.95697
-3.94665
-3.94136
-3.9285
-3.8662
-3.85654
-3.84682
-3.86933
-3.86364
-3.8639
-3.86213
-3.85972
-4.22321
-4.19301
-4.17415
-4.16218
-4.12231
-4.13881
-4.14265
-4.11377
-4.10257
-4.07726
-4.07075
-4.07024
-4.06176
-4.03081
-4.00529
-3.98528
-3.98376
-3.98095
-3.99857
-4.33645
-4.32751
-4.30676
-4.28895
-4.27124
-4.26014
-4.25918
-4.26652
-4.24751
-4.23273
-4.21985
-4.20151
-4.19415
-4.19416
-4.19853
-4.19376
-4.1887
-4.17123
-4.14377
-4.49995
-4.44768
-4.44711
-4.42817
-4.41925
-4.39901
-4.39555
-4.39536
-4.40336
-4.38097
-4.3735
-4.35922
-4.35061
-4.33758
-4.32917
-4.31973
-4.31942
-4.32499
-4.33604
-4.61309
-4.60095
-4.57682
-4.556
-4.54577
-4.54075
-4.53095
-4.52436
-4.53226
-4.53314
-4.51458
-4.5043
-4.49612
-4.4895
-4.48613
-4.48022
-4.47731
-4.47328
-4.46822
-4.75844
-4.72899
-4.71939
-4.70718
-4.69888
-4.6843
-4.67766
-4.66934
-4.6621
-4.67324
-4.67353
-4.65517
-4.64744
-4.63799
-4.63284
-4.62726
-4.62535
-4.62415
-4.62459
-4.8708
-4.86557
-4.83608
-4.83224
-4.83498
-4.81098
-4.8107
-4.8115
-4.8056
-4.79259
-4.79462
-4.79346
-4.78954
-4.78477
-4.78177
-4.77791
-4.77614
-4.77423
-4.77334
-5.01196
-4.99806
-4.99417
-4.97748
-4.96192
-4.9675
-4.95733
-4.9504
-4.94842
-4.94972
-4.96411
-4.95238
-4.9406
-4.93346
-4.92961
-4.92589
-4.92419
-4.92273
-4.92209
-5.13585
-5.12774
-5.11599
-5.10858
-5.10727
-5.09735
-5.09124
-5.09074
-5.0873
-5.08003
-5.07162
-5.0792
-5.07919
-5.07879
-5.07768
-5.07604
-5.0751
-5.07422
-5.07389
-5.27188
-5.26283
-5.2567
-5.248
-5.24211
-5.23548
-5.2218
-5.23393
-5.23258
-5.2325
-5.2331
-5.22743
-5.22672
-5.22274
-5.22125
-5.21921
-5.21813
-5.21723
-5.21684
-5.39827
-5.39465
-5.38315
-5.37692
-5.37939
-5.38077
-5.37906
-5.37086
-5.36768
-5.36326
-5.36608
-5.36946
-5.37269
-5.37408
-5.37521
-5.37528
-5.37539
-5.37523
-5.37517
-5.53313
-5.52807
-5.52685
-5.52823
-5.52467
-5.51965
-5.5181
-5.51793
-5.51922
-5.51795
-5.51585
-5.51349
-5.51355
-5.50937
-5.50841
-5.50693
-5.50636
-5.50589
-5.50572
-5.66101
-5.66468
-5.66494
-5.66168
-5.64825
-5.66188
-5.65809
-5.64225
-5.63044
-5.63051
-5.64251
-5.66083
-5.67085
-5.67676
-5.68044
-5.68234
-5.68351
-5.68408
-5.68424
)
;

boundaryField
{
    leftWall
    {
        type            calculated;
        value           nonuniform List<scalar> 
50
(
2025.78
1967.59
1908.19
1852.05
1789.33
1740.99
1678.3
1621.47
1534.65
1397.71
1276.4
1153.65
1026.58
926.831
818.871
727.312
632.134
538.02
440.085
339.17
274.182
377.219
1332.15
694.798
51.2155
-40.7808
106.961
-8.43774
-3.56208
-4.36369
-4.14986
-4.14237
-4.06192
-4.17589
-4.23585
-4.32394
-4.41499
-4.50674
-4.59734
-4.68979
-4.78565
-4.88471
-4.98346
-5.08494
-5.18397
-5.28749
-5.38574
-5.49473
-5.574
-5.74237
)
;
    }
    rightWall
    {
        type            calculated;
        value           nonuniform List<scalar> 
50
(
0.727344
0.668245
0.608848
0.549192
0.489254
0.429055
0.368585
0.307855
0.21247
0.081601
-0.0504015
-0.183463
-0.317581
-0.452662
-0.588753
-0.725634
-0.863556
-1.00195
-1.14154
-1.2811
-1.42213
-1.56252
-1.70589
-1.84819
-1.99233
-2.13544
-2.27982
-2.42283
-2.56683
-2.70988
-2.85348
-2.99639
-3.13943
-3.28578
-3.42945
-3.57342
-3.71315
-3.85972
-3.99857
-4.14377
-4.33604
-4.46822
-4.62459
-4.77334
-4.92209
-5.07389
-5.21684
-5.37517
-5.50572
-5.68424
)
;
    }
    lowerWall
    {
        type            calculated;
        value           nonuniform List<scalar> 
62
(
2055.21
2055.97
2041.4
2031.94
1998.98
1973.12
1916.79
1888.81
1812.93
1681.9
1751.64
1579.96
676.495
358.666
86.6781
-265.194
127.791
1047.36
1397.12
516.346
216.308
93.2232
57.0234
56.6688
53.6408
56.0564
48.5882
42.2633
36.3548
29.8833
23.4862
3.15323
0.561247
0.691665
0.240557
0.953028
0.895062
0.83653
0.77702
0.717288
0.660044
0.605915
0.541961
0.982458
0.981964
0.979198
0.96792
0.950344
0.93882
0.91968
0.905143
0.886917
0.87192
0.854088
0.839866
0.814605
0.793439
0.782856
0.771638
0.764478
0.759115
0.756773
)
;
    }
    atmosphere
    {
        type            calculated;
        value           nonuniform List<scalar> 
46
(
-5.75717
-5.75715
-5.75445
-5.75634
-5.74871
-5.74865
-5.74746
-5.74057
-5.7474
-5.7377
-5.74334
-5.73688
-5.73707
-5.73711
-5.73629
-5.73383
-5.73261
-5.73048
-5.72966
-5.72937
-5.72909
-5.72904
-5.72904
-5.72904
-5.72904
-5.72904
-5.72904
-5.72904
-5.72904
-5.72904
-5.72904
-5.72904
-5.72904
-5.72904
-5.72904
-5.72904
-5.72904
-5.72904
-5.72904
-5.72904
-5.72904
-5.72904
-5.72904
-5.72904
-5.72904
-5.72904
)
;
    }
    defaultFaces
    {
        type            empty;
    }
}


// ************************************************************************* //
