/*--------------------------------*- C++ -*----------------------------------*\
| =========                 |                                                 |
| \\      /  F ield         | foam-extend: Open Source CFD                    |
|  \\    /   O peration     | Version:     4.1                                |
|   \\  /    A nd           | Web:         http://www.foam-extend.org         |
|    \\/     M anipulation  |                                                 |
\*---------------------------------------------------------------------------*/
FoamFile
{
    version     2.0;
    format      ascii;
    class       volScalarField;
    location    "0.15";
    object      pd;
}
// * * * * * * * * * * * * * * * * * * * * * * * * * * * * * * * * * * * * * //

dimensions      [1 -1 -2 0 0 0 0];

internalField   nonuniform List<scalar> 
2268
(
2055.21
2055.97
2041.4
2031.94
1998.98
1973.12
1916.79
1888.81
1812.93
1681.9
1751.64
1579.96
676.495
358.666
86.6781
-265.194
127.791
1047.36
1397.12
516.346
216.308
93.2232
57.0234
2055.88
2056.31
2041.73
2032.26
1999.29
1973.08
1915.32
1888.75
1812.98
1671.94
1717.52
1517.01
574.385
293.278
-209.88
-145.124
231.751
1558.1
506.98
200.553
171.826
118.826
54.7037
2055.33
2056.36
2042.06
2032.68
2000.17
1974.81
1921.86
1885.58
1811.6
1715.85
1709.37
1476.94
1103.71
683.358
-336.73
-220.303
394.747
1575.96
911.601
314.887
115.995
104.01
59.3101
2058.05
2057.41
2043.14
2033.67
2001.3
1972.7
1924.65
1891.46
1805.57
1736.5
1728.07
1640.89
1264.18
999.897
379.975
-56.1094
581.374
1510.87
1238.88
200.633
29.8606
69.2851
52.8205
2054.19
2057.07
2043.79
2034.52
2002.3
1971.44
1914.36
1900.23
1810.35
1741.97
1686.53
1751.9
629.635
36.5905
595.864
263.705
639.088
1250.16
1169.65
86.1047
25.0411
47.8576
47.251
2064.72
2058.87
2045.68
2036.69
2004.26
1973.73
1914.1
1902.8
1777.01
1771.52
1698.36
1778.78
394.592
231.615
918.117
951.406
1166.82
1302.3
160.766
33.4625
23.9556
33.2573
41.8791
2060.88
2058.99
2046.83
2038.05
2006.26
1977.46
1927.69
1898.88
1757.32
1794.45
1753.99
1751.26
390.247
-16.4027
510.207
1191.94
1316.26
166.919
64.6822
32.0963
24.1212
26.7132
35.7699
2062.91
2064.48
2049.69
2042.53
2008.6
1977.88
1906.85
1932.25
1782.42
1793.02
1752.8
1810.02
257.665
322.671
155.215
205.842
435.161
425.748
210.813
51.1603
24.142
23.2259
29.553
0.982458
0.981964
0.979198
0.96792
0.950344
0.93882
0.91968
0.905143
0.886917
0.87192
0.854088
0.839866
0.814605
0.793439
0.782856
0.771638
0.764478
0.759115
0.756773
0.98335
0.982694
0.979247
0.968216
0.950462
0.938387
0.919507
0.905094
0.886879
0.871759
0.854504
0.841997
0.808244
0.794223
0.782468
0.771381
0.764224
0.758877
0.756533
0.983677
0.982883
0.980095
0.968675
0.950797
0.939502
0.919779
0.90498
0.88638
0.871223
0.853609
0.838832
0.808077
0.793933
0.781842
0.770813
0.76366
0.758334
0.755995
0.983025
0.98397
0.980959
0.969639
0.951195
0.937655
0.920432
0.904264
0.885273
0.870068
0.858351
0.826526
0.807451
0.792968
0.780685
0.769937
0.76281
0.757527
0.755198
0.982152
0.982574
0.981757
0.970594
0.951966
0.939356
0.920531
0.905739
0.884019
0.869365
0.853346
0.824676
0.806959
0.791446
0.779421
0.768758
0.761672
0.756434
0.754118
0.983767
0.983276
0.980995
0.971813
0.952847
0.939073
0.920235
0.903106
0.879967
0.87264
0.840095
0.822297
0.804744
0.789692
0.777748
0.767295
0.760258
0.755078
0.752778
0.988497
0.989233
0.98622
0.971179
0.953711
0.938346
0.920463
0.907669
0.875936
0.860678
0.840224
0.818852
0.802754
0.787362
0.77586
0.765529
0.758564
0.753447
0.751166
0.983426
0.985604
0.995747
0.973309
0.955184
0.938994
0.919707
0.900661
0.872505
0.861311
0.833877
0.816114
0.800297
0.785182
0.77365
0.763522
0.756607
0.751558
0.749296
2068.11
2061.67
2051.41
2042.15
1994.97
1970.79
1925.57
1898.26
1799.53
1763.55
1689.96
1683.72
1933.43
1821.86
1532.36
1613.94
1974.69
1836.9
717.458
89.7094
22.4049
17.1308
19.7943
2056.38
2075.59
2050.78
2041.9
2034.15
1998.64
1951.05
1925.51
1837.91
1754.47
1708.65
1512.34
1746.24
2145.85
2208.87
1761.99
1078.37
429.177
68.304
16.4325
11.6336
10.0643
9.97723
2060.26
2049.2
2074.44
2065.73
2029.07
1999.63
1945.54
1925.25
1818.79
1777.5
1542.61
1422.04
1456.98
1817.89
2134.43
998.807
298.309
119.825
43.7633
15.675
8.11972
7.02889
7.50785
2062.7
2061.54
2039.8
2084.69
2050.19
2061.42
2034.45
1962.53
1836.1
1668.36
1611.11
1539.51
1449.62
1686.24
2178.1
1066.96
375.705
138.528
45.4916
12.7244
5.38784
4.36142
3.65502
2060.82
2053.18
2031.07
1987.15
1970.06
1962.48
1890.92
1905.89
1930.62
1797.01
1871.02
1666.72
2242.72
2305.01
2055.77
1055.01
387.001
136.951
50.071
20.1848
7.18532
2.58728
1.6718
2086.27
2082.94
2067.96
2064.41
2029.76
2017.16
1975.54
1962.58
1962.42
1861.15
1843.79
2126.24
1637.44
1518.87
1021.4
494.439
160.634
37.5404
9.61643
2.38217
0.486135
-0.29113
-0.127561
2103.5
2102.25
2086.19
2097.44
2046.75
2010.19
1965.12
1981.38
1894.09
1896.79
1876.11
1841.21
2391.88
2497.03
1881.75
844.891
271.49
75.1418
21.7962
4.85245
0.189505
-0.920955
-0.743669
2137.14
2131.62
2140.38
2123.84
2090.54
2179.51
2119.37
2036.52
1944.58
1930.68
1792.98
1793.81
1819.66
2355.07
2389.14
1301.3
366.882
108.589
27.6043
4.08355
-1.02106
-1.34804
-1.10853
2167.16
2168.43
2172.45
2150.49
2234.34
2056.71
2130.02
2085.77
2018.56
2005.32
1873.25
1749.48
1950.97
2358.2
2327.9
1333.5
246.734
74.3226
22.4902
3.58774
-1.49312
-1.46681
-1.08401
2198.21
2201.61
2210.53
2225.66
2278.87
2223.61
2195.78
2174.77
2112.72
1971.34
1926.3
2080.1
2459.19
1395.24
748.646
202.833
14.7354
-1.87514
-2.08567
-1.60834
-1.88684
-1.48911
-0.861188
2225.16
2223.55
2224.64
2192.88
2125.02
2225.79
2208.83
2215.78
2165.03
2253.61
2186.78
2495.7
1599.15
453.117
158.868
41.1109
14.6419
0.742744
-1.35535
-1.36659
-1.41691
-1.13904
-0.686403
2246.25
2246.83
2235.41
2188.73
2209.72
2205.5
2250.57
2265.85
2263.73
2647.51
2780.79
2492.54
1546.58
370.568
84.9908
53.5408
20.0537
8.35403
-0.577288
-1.0523
-0.929974
-0.713646
-0.477208
2279.78
2294.78
2293.81
2391.63
2237.86
2401.03
2334.74
2398.09
2691.18
1544.33
1970.67
2442.21
1634.99
389.388
48.4166
12.1521
3.23587
8.52937
0.775969
-0.677608
-0.679028
-0.551713
-0.331741
2331.18
2279.88
2336.13
2373.87
2440.86
2330.8
2425.77
2488.23
2574.94
924.424
1206.61
2489.95
1442.84
354.287
33.0932
1.54061
-0.998571
1.56161
13.302
13.2809
5.83508
0.0490648
-0.299844
2685.83
2302.61
2335.34
2387.74
2403.98
2364.68
2434.26
2643.09
2340.36
756.137
837.782
2375.18
679.711
72.417
3.60139
-1.08901
-1.18571
-1.11305
-0.0838922
7.42971
4.63881
-0.0575478
-0.398409
1235.55
2613.68
2334.56
2402.36
2358.74
2324.85
2270.48
2591.73
1562.68
403.11
141.259
1864.41
152.229
3.81097
-0.705956
-1.06993
-1.17007
-0.506518
0.359952
1.25129
1.71586
-0.449492
-0.375826
294.2
2234.51
2561.73
2470.15
2379.93
2740.37
2425.57
2554.05
716.658
56.0179
11.2876
183.76
5.38761
0.200975
-0.697583
-1.04198
-0.783833
-0.704038
-0.439294
-0.926829
-0.408211
-0.673689
-0.304633
137.201
1147.86
2624.74
2757.15
2718.34
2459.17
2892.3
1814.2
259.586
4.4977
0.421538
13.1615
0.191173
-0.425723
-0.673438
-0.717204
-0.611389
-0.788655
-1.08887
-0.999883
-0.593281
-0.522315
-0.247204
331.141
2257.76
2818.9
1666.82
2406.35
411.596
1526.44
267.485
19.6972
0.0486023
-0.96851
0.0481244
-0.622374
-0.664021
-0.603803
-0.499353
-0.58937
-0.637797
-0.471302
-0.538621
-0.741871
-0.389678
-0.205087
13.073
281.529
1035.43
259.96
365.887
19.6605
199.653
108.871
11.7109
0.117217
-0.737435
-0.649381
-0.777518
-0.625628
-0.429038
-0.461066
-0.556444
-0.600876
-0.508054
-0.531701
-0.141816
-0.187526
-0.135313
7.15559
37.9506
231.826
66.9638
10.3793
5.01324
12.1102
21.1259
3.61243
-0.380385
-0.731712
-0.870505
-0.630041
-0.564699
-0.423127
-0.364558
-0.410619
-0.545485
-0.452354
-0.409167
-0.306283
-0.17086
-0.0758571
0.966908
0.506884
9.25816
-0.580841
-0.406052
0.368557
1.69744
-0.140622
0.79645
-0.468006
-0.522211
-0.601412
-0.562632
-0.427009
-0.471793
-0.402624
-0.330316
-0.463956
-0.360928
-0.283145
-0.218517
-0.136884
-0.0714646
-0.183572
-0.783481
-0.819393
-0.704834
-0.642488
-0.404681
-0.193682
-0.473988
-0.35371
-0.502751
-0.504825
-0.544445
-0.385239
-0.358848
-0.406189
-0.402148
-0.383549
-0.371645
-0.272472
-0.238181
-0.172793
-0.107817
-0.0633713
-0.600702
-0.620464
-0.579584
-0.62588
-0.519429
-0.553962
-0.494681
-0.48093
-0.43654
-0.434207
-0.40904
-0.402417
-0.36915
-0.309322
-0.353307
-0.330779
-0.309395
-0.288558
-0.240694
-0.201576
-0.144829
-0.0902317
-0.0377972
-0.518711
-0.55547
-0.547045
-0.515763
-0.476048
-0.419749
-0.389725
-0.447663
-0.407209
-0.406691
-0.407371
-0.394824
-0.375521
-0.31979
-0.338372
-0.365782
-0.298655
-0.22481
-0.225312
-0.166671
-0.122542
-0.0714653
-0.0211758
-0.512504
-0.504825
-0.491006
-0.468637
-0.435314
-0.41099
-0.386652
-0.333369
-0.339008
-0.332426
-0.280873
-0.263886
-0.240589
-0.26283
-0.257614
-0.24985
-0.225972
-0.22426
-0.176358
-0.142027
-0.0986506
-0.0582265
-0.00705608
-0.447328
-0.446635
-0.43832
-0.422537
-0.401872
-0.37714
-0.356373
-0.341533
-0.325015
-0.309954
-0.287736
-0.272611
-0.272363
-0.196573
-0.236294
-0.165081
-0.1892
-0.185698
-0.168207
-0.124867
-0.0882759
-0.0515696
0.00188642
-0.410221
-0.406198
-0.399198
-0.38595
-0.367919
-0.347277
-0.329747
-0.307445
-0.287523
-0.271148
-0.240153
-0.228604
-0.234193
-0.218418
-0.202623
-0.173143
-0.171207
-0.112492
-0.14393
-0.103539
-0.0721652
-0.0376642
0.000300994
-0.376075
-0.37083
-0.362457
-0.353579
-0.3408
-0.325848
-0.310979
-0.293963
-0.280951
-0.260616
-0.263782
-0.247407
-0.231382
-0.164527
-0.176819
-0.170908
-0.118115
-0.116974
-0.130592
-0.0957985
-0.0652785
-0.0330021
-0.00386495
-0.342628
-0.337799
-0.326893
-0.318375
-0.304196
-0.277283
-0.266939
-0.264829
-0.2516
-0.240012
-0.211552
-0.224615
-0.20121
-0.177161
-0.17974
-0.109346
-0.120524
-0.0942938
-0.0771452
-0.0963805
-0.0632755
-0.0259041
-0.000168347
-0.308033
-0.305809
-0.298931
-0.296698
-0.289387
-0.303462
-0.296083
-0.255361
-0.23636
-0.216333
-0.221685
-0.198512
-0.183238
-0.160659
-0.117025
-0.128366
-0.080896
-0.0896888
-0.0616316
-0.076415
-0.0462931
-0.0240107
-0.000219299
-0.275295
-0.273106
-0.268307
-0.261643
-0.254463
-0.239187
-0.236413
-0.231037
-0.241397
-0.212725
-0.202071
-0.182621
-0.158029
-0.144234
-0.127815
-0.114233
-0.0906461
-0.0577362
-0.0699422
-0.0401422
-0.0586421
-0.0210632
-0.00137977
-0.245954
-0.243943
-0.241773
-0.236294
-0.236916
-0.242933
-0.222522
-0.198409
-0.169449
-0.15466
-0.156141
-0.139936
-0.147753
-0.125663
-0.113269
-0.0811361
-0.0624616
-0.0630503
-0.0498371
-0.0324087
-0.0366621
-0.0158972
-0.00106587
-0.219828
-0.218327
-0.214247
-0.206034
-0.20325
-0.170242
-0.179768
-0.165595
-0.164412
-0.166712
-0.15367
-0.148367
-0.142625
-0.116578
-0.10269
-0.0805694
-0.0743478
-0.0415714
-0.0325294
-0.0337493
-0.0232596
-0.0233946
-0.00274139
-0.193377
-0.191118
-0.190206
-0.178569
-0.16981
-0.171514
-0.169911
-0.175119
-0.154546
-0.13721
-0.127858
-0.11754
-0.114874
-0.0991773
-0.0842703
-0.0721601
-0.0461223
-0.0427259
-0.0343636
-0.022202
-0.0149098
0.00227679
-0.0111757
-0.169669
-0.167811
-0.168771
-0.157543
-0.182381
-0.150742
-0.149675
-0.134934
-0.138404
-0.131817
-0.123978
-0.109267
-0.0989568
-0.0830209
-0.0758778
-0.0618314
-0.0493178
-0.0385902
-0.0210325
-0.0168586
-0.0142252
0.00520833
-0.00717563
-0.1435
-0.142601
-0.141974
-0.137976
-0.137319
-0.133093
-0.126208
-0.120551
-0.11116
-0.0895108
-0.0811477
-0.0848849
-0.0885796
-0.0800602
-0.0643004
-0.050842
-0.0409317
-0.0252651
-0.0217786
-0.00869628
-0.00956433
0.00441745
-0.000132442
-0.121827
-0.120055
-0.119
-0.113418
-0.11547
-0.108006
-0.105093
-0.100565
-0.0967742
-0.108275
-0.0891517
-0.078524
-0.0726507
-0.0625594
-0.0542816
-0.042569
-0.0369739
-0.0194394
-0.0178728
-0.00990591
-0.00746363
0.00318466
0.000476311
-0.0948801
-0.0953576
-0.095144
-0.0966938
-0.0921727
-0.0914533
-0.0976076
-0.0829125
-0.0773369
-0.0623889
-0.064843
-0.0571496
-0.0556776
-0.0481482
-0.0403462
-0.0314283
-0.024371
-0.0162855
-0.0105731
-0.00603649
-0.00542859
0.000201244
0.00576944
-0.0786722
-0.0759791
-0.0723594
-0.0594681
-0.0656187
-0.0637144
-0.0459207
-0.0592016
-0.0574663
-0.058323
-0.0551392
-0.0477569
-0.0454267
-0.0393766
-0.0336117
-0.0279556
-0.0230553
-0.0160358
-0.00849914
-0.00695429
-0.00141013
-0.0013961
0.00820155
-0.0327502
-0.0359812
-0.0433793
-0.075603
-0.0573812
-0.0381063
-0.0355141
-0.039317
-0.0304301
-0.0325299
-0.0261997
-0.0268992
-0.0265182
-0.0168389
-0.0144612
-0.00870249
-0.00607396
-0.00292558
-0.00313997
-0.000838529
-0.000709237
0.00187651
0.00181707
-0.0759247
-0.0723999
-0.0579943
-0.0332358
-0.0288668
-0.0446856
-0.0446197
-0.0199564
-0.0480621
-0.0145023
-0.0414398
-0.0178119
-0.0188292
-0.0260824
-0.0246927
-0.0210289
-0.0194189
-0.0129845
-0.00643729
-0.00639163
-0.001088
-0.00241513
0.00180022
7.63878
3.14579
1.16324
0.712588
8.95453
5.66251
2.35837
1.2384
9.29509
8.00731
4.49318
1.98404
3.74822
4.38295
4.27481
2.84528
1.99404
3.21904
3.30047
2.60311
0.662834
2.03628
2.62615
2.40529
-0.206333
0.89824
1.8928
2.36256
-0.558131
0.230826
0.974839
1.41915
-0.551189
-0.0534836
0.41248
0.732968
-0.379492
-0.0333692
0.231355
0.449787
-0.298262
-0.0354539
0.131755
0.295631
-0.21846
-0.0444586
0.0982023
0.218204
-0.147992
-0.0327007
0.0811419
0.191472
-0.154975
-0.0490852
0.0444477
0.134462
-0.188325
-0.0730214
0.0690348
0.131967
-0.182463
-0.0865759
0.00663349
0.0937635
-0.144622
-0.0530121
0.04106
0.105303
-0.114599
-0.0334376
0.0535044
0.102549
-0.0940939
-0.0524398
0.0923909
0.10637
-0.0675265
-0.0507541
-0.00378397
0.0722741
0.00669855
0.0455058
0.0807878
0.124978
-0.0122637
0.0204467
0.0602157
0.0910963
0.014513
0.0598762
0.0717271
0.091073
-0.00946288
0.00543014
0.0594017
0.0990632
0.0151198
-0.00143218
0.0196463
0.0383435
0.0215091
0.0564607
0.0400239
0.0669043
0.00323726
0.0287138
0.0526415
0.0500374
0.0196675
0.0476373
0.058392
0.0786938
0.015445
0.0226212
0.0495351
0.058321
0.0264685
0.0277862
0.0376378
0.0632774
0.0139708
0.0372903
0.0312542
0.046713
0.0203379
0.0175292
0.0455948
0.0334587
0.0153104
0.0255918
0.0250295
0.0412452
0.014069
0.022185
0.0330359
0.0400339
0.0142177
0.0178285
0.0239743
0.0345969
0.0113847
0.0162022
0.0242651
0.0301822
0.00662597
0.0148507
0.0185838
0.0238989
0.00892196
0.0123198
0.0173499
0.0217519
0.0020562
0.00817506
0.010777
0.0157077
0.00148602
0.00845952
0.00962557
0.0135394
0.00399424
0.00569638
0.00547557
0.0104535
0.00081224
0.00269183
0.00201663
0.00296954
0.994118
0.991811
0.956725
0.97727
0.96302
0.941616
0.921809
0.897637
0.873384
0.848828
0.829516
0.803945
0.798071
0.780304
0.769834
0.759905
0.753103
0.748161
0.745937
0.953806
1.0088
0.984853
0.991459
0.965687
0.94458
0.916694
0.892689
0.86224
0.84345
0.813717
0.810604
0.787784
0.775022
0.763504
0.753918
0.747224
0.742443
0.740263
0.985455
0.906385
0.980693
1.00074
0.990431
0.946305
0.917393
0.886255
0.858432
0.826679
0.8213
0.793532
0.781188
0.7666
0.756003
0.746614
0.740193
0.735565
0.733455
1.28555
0.980579
0.966602
1.0135
0.988928
0.951294
0.909324
0.877405
0.843816
0.832167
0.802336
0.788414
0.771291
0.758315
0.747333
0.738418
0.732092
0.727643
0.725588
1.43032
1.19173
0.976588
0.988174
0.995492
0.947075
0.909717
0.87678
0.846777
0.816995
0.797142
0.776337
0.7618
0.748005
0.737732
0.728988
0.722923
0.718641
0.716664
1.83761
1.33766
1.26701
1.0054
1.00195
0.949152
0.89837
0.862745
0.828091
0.806732
0.7824
0.765105
0.749733
0.73707
0.726921
0.71861
0.71276
0.708673
0.706778
1.91686
1.44577
1.32081
1.02589
0.97537
0.938201
0.884514
0.8509
0.817495
0.791888
0.770317
0.751848
0.737452
0.724762
0.715138
0.707128
0.701568
0.697678
0.695881
1.36453
1.27948
1.15357
1.12589
0.934875
0.911784
0.862234
0.831145
0.796929
0.775487
0.753698
0.737019
0.723103
0.711323
0.70227
0.694747
0.689536
0.685879
0.684195
0.976493
1.06599
1.04387
1.04394
0.892117
0.885286
0.833019
0.808986
0.776096
0.756317
0.737444
0.720606
0.708154
0.696719
0.688376
0.681256
0.676442
0.673019
0.671467
0.703202
0.84706
0.894024
0.882174
0.895244
0.832462
0.797873
0.783747
0.750217
0.735539
0.717458
0.702681
0.691352
0.681092
0.673625
0.667156
0.66281
0.659678
0.65827
0.51529
0.684247
0.757849
0.796795
0.774972
0.810711
0.751717
0.75431
0.72247
0.711221
0.698875
0.682978
0.674188
0.664277
0.657812
0.651778
0.647976
0.645105
0.643872
0.39804
0.561453
0.653243
0.702083
0.722646
0.711238
0.715054
0.734985
0.6901
0.687649
0.67654
0.662335
0.655213
0.646893
0.641519
0.63636
0.633092
0.630587
0.629511
0.330234
0.477982
0.572047
0.632309
0.656904
0.670404
0.6765
0.662531
0.662684
0.660754
0.661122
0.64008
0.636095
0.628357
0.624078
0.619323
0.616776
0.614518
0.613675
0.286438
0.426457
0.512751
0.575516
0.607429
0.623213
0.631951
0.634912
0.633322
0.628887
0.61886
0.61714
0.615437
0.609692
0.606669
0.603033
0.600976
0.599191
0.598477
0.245184
0.371102
0.457139
0.530838
0.562106
0.581151
0.597204
0.600512
0.602695
0.600154
0.600074
0.595533
0.593695
0.588958
0.58684
0.58342
0.582353
0.580678
0.580296
0.221778
0.339652
0.424587
0.487035
0.515387
0.551189
0.558188
0.569866
0.571654
0.569036
0.573536
0.571328
0.57097
0.56882
0.567194
0.565158
0.564533
0.563529
0.563196
0.197259
0.307818
0.385904
0.447456
0.482176
0.50257
0.522114
0.535729
0.542093
0.551189
0.548732
0.549295
0.54884
0.547355
0.546706
0.544392
0.54533
0.544139
0.544252
0.178312
0.273591
0.35194
0.406137
0.436369
0.474405
0.494797
0.503262
0.513518
0.520047
0.523525
0.525669
0.525272
0.527806
0.526978
0.528106
0.526685
0.526486
0.52633
0.149775
0.236148
0.273194
0.377385
0.423522
0.439629
0.462989
0.476302
0.488471
0.493488
0.500082
0.502664
0.507975
0.505425
0.506757
0.506597
0.506888
0.506993
0.507145
0.0983001
0.231039
0.300887
0.362177
0.377316
0.406715
0.436697
0.450065
0.465097
0.472367
0.476962
0.480728
0.482447
0.484601
0.487072
0.487523
0.488638
0.489037
0.489329
0.180829
0.217998
0.26749
0.313688
0.357967
0.40367
0.407404
0.423649
0.440129
0.448246
0.454467
0.459749
0.462513
0.465188
0.467156
0.468096
0.469367
0.470092
0.470525
0.142605
0.207325
0.255604
0.303965
0.336321
0.35895
0.384929
0.407989
0.420047
0.42579
0.432061
0.438762
0.442894
0.445492
0.448095
0.449401
0.450868
0.452093
0.452675
0.131904
0.197975
0.245331
0.283332
0.315094
0.343414
0.365194
0.386606
0.390773
0.404653
0.412528
0.417953
0.422146
0.426051
0.429533
0.431148
0.432361
0.433263
0.434269
0.162555
0.181498
0.219863
0.265536
0.298786
0.322014
0.342913
0.358153
0.374263
0.385077
0.394772
0.39906
0.40229
0.408815
0.410812
0.412394
0.413588
0.414725
0.416556
0.0618994
0.180202
0.23834
0.242824
0.271174
0.303417
0.324826
0.340917
0.350972
0.365161
0.37075
0.379354
0.384569
0.389888
0.390721
0.394441
0.395544
0.397681
0.398707
0.0856275
0.113109
0.136468
0.244123
0.283034
0.281364
0.296999
0.3236
0.334582
0.34536
0.350625
0.36151
0.364732
0.370605
0.372689
0.375879
0.37738
0.378508
0.377547
0.0757743
0.0842932
0.136128
0.15268
0.18881
0.276165
0.304712
0.307075
0.300895
0.327835
0.333891
0.341201
0.344091
0.351509
0.354127
0.358782
0.359976
0.360932
0.359075
0.103502
0.149695
0.115216
0.167315
0.179597
0.199122
0.21545
0.293288
0.314234
0.309573
0.304785
0.326188
0.329621
0.33798
0.335677
0.337443
0.33908
0.340569
0.3403
0.0764179
0.102387
0.157973
0.123883
0.166395
0.191128
0.205235
0.214081
0.229447
0.297134
0.313536
0.303352
0.302451
0.313453
0.316853
0.326984
0.327852
0.328463
0.325762
0.0824214
0.106727
0.119706
0.170689
0.132877
0.171642
0.18087
0.207136
0.217455
0.222748
0.235611
0.297911
0.307571
0.317289
0.294775
0.300465
0.30021
0.301982
0.304388
0.0660892
0.0962968
0.115153
0.127121
0.166995
0.150488
0.146655
0.175537
0.186734
0.212039
0.218548
0.219068
0.227547
0.258496
0.284011
0.304022
0.305542
0.308348
0.290734
0.0780429
0.0869855
0.107741
0.125546
0.143261
0.154361
0.155315
0.147982
0.166986
0.181763
0.194648
0.212985
0.220346
0.220334
0.215966
0.220737
0.225798
0.243264
0.270732
0.0397449
0.0920076
0.0925868
0.111525
0.120438
0.14068
0.144139
0.144333
0.136333
0.158723
0.166188
0.180476
0.189085
0.202109
0.210525
0.219961
0.220272
0.214698
0.203648
0.0517936
0.0639353
0.0880691
0.108889
0.119117
0.124133
0.133938
0.14053
0.132625
0.131747
0.150308
0.160584
0.168766
0.175384
0.178759
0.184663
0.187574
0.191604
0.196663
0.0316451
0.0610871
0.0706904
0.0829052
0.0912033
0.105783
0.11242
0.120738
0.127983
0.11684
0.116546
0.134913
0.142637
0.152094
0.157236
0.16282
0.164727
0.16593
0.165489
0.0444747
0.0497024
0.0791927
0.0830335
0.0802956
0.104293
0.104572
0.103777
0.109677
0.122683
0.120654
0.121811
0.125739
0.130508
0.133508
0.13737
0.139137
0.141048
0.141939
0.0285057
0.0424144
0.0463025
0.0629888
0.0785474
0.0729694
0.0831445
0.0900745
0.0920501
0.0907543
0.0763631
0.0880852
0.0998723
0.10701
0.110859
0.114577
0.116285
0.117736
0.118381
0.0298122
0.0379247
0.0496715
0.0570829
0.0583956
0.0683158
0.0744269
0.0749274
0.0783658
0.0856389
0.0940424
0.0864691
0.0864753
0.0868723
0.0879797
0.089624
0.0905657
0.0914401
0.0917737
0.0189796
0.0280287
0.034158
0.0428583
0.0487522
0.0553762
0.0690559
0.0569304
0.0582795
0.058362
0.0577611
0.0634256
0.0641439
0.0681166
0.0696049
0.0716509
0.0727255
0.0736284
0.0740156
0.0177793
0.0214006
0.0328991
0.0391354
0.0366669
0.0352852
0.0369913
0.0451914
0.0483787
0.0527986
0.0499751
0.0465984
0.0433587
0.0419743
0.0408465
0.040777
0.0406641
0.0408231
0.0408881
0.00811802
0.0131828
0.0144017
0.0130146
0.0165769
0.0215988
0.0231448
0.0233215
0.0220276
0.0232937
0.0253966
0.027759
0.0276963
0.0318806
0.0328412
0.0343206
0.0348885
0.0353625
0.0355245
0.00543147
0.00176095
0.00150741
0.00476281
0.0181933
0.0045585
0.00835378
0.0241977
0.0360028
0.0359332
0.0239318
0.00561083
-0.00441005
-0.0103197
-0.0139985
-0.0159022
-0.0170722
-0.0176369
-0.0177932
)
;

boundaryField
{
    leftWall
    {
        type            zeroGradient;
    }
    rightWall
    {
        type            zeroGradient;
    }
    lowerWall
    {
        type            zeroGradient;
    }
    atmosphere
    {
        type            totalPressure;
        rho             rho;
        psi             none;
        gamma           1;
        p0              uniform 0;
        value           nonuniform List<scalar> 
46
(
-0.028134
-0.0281071
-0.0254117
-0.0273032
-0.0196675
-0.0196084
-0.0184224
-0.0115341
-0.0183607
-0.00865669
-0.0143016
-0.0078431
-0.00802697
-0.00806762
-0.00725356
-0.00479414
-0.0035728
-0.00143721
-0.000624303
-0.000333364
-4.58388e-05
0
0
0
0
0
0
0
0
0
0
0
0
0
0
0
0
0
0
0
0
0
0
0
0
0
)
;
    }
    defaultFaces
    {
        type            empty;
    }
}


// ************************************************************************* //
