/*--------------------------------*- C++ -*----------------------------------*\
| =========                 |                                                 |
| \\      /  F ield         | foam-extend: Open Source CFD                    |
|  \\    /   O peration     | Version:     4.1                                |
|   \\  /    A nd           | Web:         http://www.foam-extend.org         |
|    \\/     M anipulation  |                                                 |
\*---------------------------------------------------------------------------*/
FoamFile
{
    version     2.0;
    format      ascii;
    class       surfaceScalarField;
    location    "0.15";
    object      phi;
}
// * * * * * * * * * * * * * * * * * * * * * * * * * * * * * * * * * * * * * //

dimensions      [0 3 -1 0 0 0 0];

internalField   nonuniform List<scalar> 
4432
(
1.99948e-06
-1.99948e-06
5.46223e-06
-3.46276e-06
9.22738e-06
-3.76512e-06
1.33377e-05
-4.11032e-06
1.78726e-05
-4.53486e-06
2.34627e-05
-5.59015e-06
2.66662e-05
-3.20347e-06
3.64988e-05
-9.83261e-06
4.57789e-05
-9.28012e-06
7.56004e-05
-2.98214e-05
8.86939e-05
-1.30935e-05
0.000148552
-5.98582e-05
0.000175421
-2.68692e-05
0.000184868
-9.44659e-06
0.000122576
6.22919e-05
0.000102746
1.98296e-05
8.56457e-05
1.71006e-05
5.83745e-05
2.72712e-05
5.2575e-05
5.79953e-06
8.18464e-05
-2.92715e-05
8.66711e-05
-4.82467e-06
6.80832e-05
1.85879e-05
6.80833e-05
2.06684e-06
-4.06629e-06
5.48819e-06
-6.88412e-06
9.22698e-06
-7.50389e-06
1.33096e-05
-8.19291e-06
1.78938e-05
-9.11914e-06
2.35826e-05
-1.12789e-05
2.6609e-05
-6.2299e-06
3.62221e-05
-1.94456e-05
4.51193e-05
-1.81773e-05
7.39875e-05
-5.86897e-05
9.03843e-05
-2.94903e-05
0.000148666
-0.00011814
0.000168146
-4.63498e-05
0.000188312
-2.96124e-05
0.000166274
8.43302e-05
9.87335e-05
8.73701e-05
4.96451e-05
6.6189e-05
5.18417e-05
2.50746e-05
1.31345e-05
4.45068e-05
5.19104e-05
-6.80474e-05
7.5348e-05
-2.82622e-05
3.14122e-05
6.25237e-05
9.94955e-05
2.06894e-06
-6.13521e-06
5.42238e-06
-1.02376e-05
9.11381e-06
-1.11953e-05
1.32033e-05
-1.22824e-05
1.7443e-05
-1.33589e-05
2.29094e-05
-1.67453e-05
2.65302e-05
-9.8507e-06
3.43266e-05
-2.7242e-05
4.00622e-05
-2.39129e-05
4.20111e-05
-6.06385e-05
7.92954e-05
-6.67746e-05
0.000117441
-0.000156286
0.000122374
-5.12822e-05
0.000108421
-1.56596e-05
0.000110173
8.25786e-05
9.21605e-05
0.000105382
6.43985e-05
9.3951e-05
1.80071e-05
7.1466e-05
4.48598e-05
1.76541e-05
7.9635e-05
-0.000102823
9.08047e-05
-3.9432e-05
8.38044e-05
6.95241e-05
0.0001833
2.34594e-06
-8.48113e-06
5.5104e-06
-1.34021e-05
9.03576e-06
-1.47206e-05
1.30333e-05
-1.628e-05
1.77372e-05
-1.80628e-05
2.35352e-05
-2.25433e-05
2.66199e-05
-1.29355e-05
3.29775e-05
-3.35996e-05
3.67272e-05
-2.76626e-05
3.62936e-05
-6.02049e-05
3.19375e-05
-6.24185e-05
1.53102e-05
-0.000139658
5.78702e-05
-9.38422e-05
0.000122928
-8.07178e-05
8.89166e-05
0.00011659
7.99129e-05
0.000114386
5.36559e-05
0.000120208
7.01492e-05
5.49727e-05
0.000100657
-1.28534e-05
6.55338e-05
-6.76996e-05
5.95687e-05
-3.34669e-05
4.2594e-05
8.64989e-05
0.000225894
2.22527e-06
-1.07064e-05
5.32175e-06
-1.64986e-05
8.79688e-06
-1.81958e-05
1.2808e-05
-2.02911e-05
1.80586e-05
-2.33134e-05
2.3228e-05
-2.77127e-05
2.52498e-05
-1.49573e-05
3.10701e-05
-3.94199e-05
3.42895e-05
-3.0882e-05
3.37225e-05
-5.96379e-05
4.65704e-05
-7.52664e-05
3.54489e-06
-9.66329e-05
-1.31255e-05
-7.71718e-05
1.221e-05
-0.000106053
6.55405e-05
6.32598e-05
0.000128153
5.17735e-05
0.000119864
0.000128496
0.000116561
5.82761e-05
9.67355e-05
6.97196e-06
7.6207e-05
-4.7171e-05
5.84036e-05
-1.56636e-05
3.96727e-05
0.00010523
0.000265566
3.09925e-06
-1.38056e-05
5.60121e-06
-1.90005e-05
8.61521e-06
-2.12097e-05
1.24966e-05
-2.41725e-05
1.76847e-05
-2.85015e-05
2.22513e-05
-3.22793e-05
4.53624e-05
-3.80684e-05
2.99626e-05
-2.40201e-05
5.17007e-05
-5.262e-05
4.55718e-05
-5.35091e-05
4.70767e-05
-7.67713e-05
5.38023e-06
-5.49364e-05
-1.80517e-05
-5.37399e-05
-1.76707e-05
-0.000106434
7.02339e-05
-2.46448e-05
6.4895e-05
5.71124e-05
7.01665e-05
0.000123225
8.08184e-05
4.76243e-05
8.59609e-05
1.82938e-06
5.29166e-05
-1.41271e-05
3.91827e-05
-1.92947e-06
3.59682e-05
0.000108444
0.000301535
2.20875e-06
-1.60144e-05
4.93416e-06
-2.1726e-05
8.18633e-06
-2.44619e-05
1.19211e-05
-2.79072e-05
1.66255e-05
-3.3206e-05
2.06082e-05
-3.62619e-05
2.39307e-05
-4.1391e-05
3.08185e-05
-3.09078e-05
4.76308e-05
-6.94323e-05
4.91104e-05
-5.49887e-05
2.81548e-05
-5.58157e-05
2.8308e-05
-5.50896e-05
-3.10459e-05
5.61406e-06
-8.04207e-05
-5.70594e-05
-4.55369e-05
-5.95286e-05
1.43315e-05
-2.75596e-06
4.27954e-05
9.47609e-05
2.10185e-05
6.94011e-05
5.73266e-05
-3.44787e-05
7.78433e-05
-3.46434e-05
5.12724e-05
2.46414e-05
3.58452e-05
0.000123872
0.00033738
3.53585e-06
-1.95502e-05
4.68057e-06
-2.28707e-05
7.72271e-06
-2.75041e-05
1.1298e-05
-3.14825e-05
1.61007e-05
-3.80087e-05
2.01983e-05
-4.03595e-05
3.54915e-05
-5.66841e-05
4.98599e-05
-4.52762e-05
5.05564e-05
-7.01289e-05
5.30129e-05
-5.74452e-05
4.63728e-05
-4.91755e-05
8.33621e-06
-1.70531e-05
-1.23964e-05
2.63467e-05
-5.84958e-05
-1.09601e-05
-9.78798e-05
-2.01447e-05
-8.23324e-05
-1.83034e-05
-3.54949e-06
1.5978e-05
4.70867e-05
1.87649e-05
6.20371e-05
-4.94292e-05
6.31425e-05
-3.57489e-05
7.1446e-05
1.6338e-05
3.72395e-05
0.000158078
0.000374619
8.85714e-07
-8.85715e-07
4.69268e-06
-3.80671e-06
9.61494e-06
-4.92228e-06
1.31208e-05
-3.50572e-06
1.43422e-05
-1.22138e-06
1.52809e-05
-9.38818e-07
1.54884e-05
-2.07601e-07
1.54534e-05
3.50283e-08
1.51312e-05
3.22166e-07
1.45636e-05
5.6752e-07
1.44754e-05
8.82258e-08
1.63702e-05
-1.89459e-06
8.56835e-06
7.80167e-06
6.78082e-06
1.78731e-06
4.98207e-06
1.79873e-06
3.63999e-06
1.34218e-06
2.36818e-06
1.27181e-06
1.16764e-06
1.2005e-06
1.16764e-06
4.44949e-07
-1.33067e-06
5.39314e-06
-8.75449e-06
1.08586e-05
-1.03877e-05
1.41913e-05
-6.83849e-06
1.55227e-05
-2.5527e-06
1.63978e-05
-1.81408e-06
1.65604e-05
-3.70303e-07
1.65451e-05
5.0171e-08
1.60778e-05
7.89514e-07
1.50208e-05
1.62465e-06
1.53968e-05
-2.87842e-07
9.70915e-06
3.79287e-06
9.03226e-06
8.47857e-06
6.91e-06
3.90969e-06
5.2462e-06
3.46247e-06
3.82251e-06
2.76572e-06
2.49173e-06
2.60253e-06
1.22844e-06
2.46392e-06
2.39607e-06
9.36912e-08
-1.42438e-06
4.75037e-06
-1.34107e-05
1.08073e-05
-1.64446e-05
1.4518e-05
-1.05491e-05
1.58412e-05
-3.87593e-06
1.66968e-05
-2.66981e-06
1.68304e-05
-5.04095e-07
1.68802e-05
4.49214e-10
1.61514e-05
1.51835e-06
1.52287e-05
2.54739e-06
1.57247e-05
-7.83609e-07
9.63099e-06
9.88667e-06
8.97305e-06
9.13636e-06
6.89972e-06
5.98285e-06
5.24261e-06
5.11954e-06
3.80924e-06
4.19915e-06
2.48549e-06
3.9263e-06
1.2254e-06
3.72406e-06
3.62142e-06
-3.95817e-07
-1.02859e-06
4.80552e-06
-1.86116e-05
1.14734e-05
-2.31125e-05
1.53187e-05
-1.43944e-05
1.66671e-05
-5.22439e-06
1.70416e-05
-3.0443e-06
1.69546e-05
-4.17229e-07
1.70443e-05
-8.91519e-08
1.57967e-05
2.76602e-06
1.54527e-05
2.89137e-06
9.5309e-06
5.13819e-06
9.79121e-06
9.62633e-06
8.38244e-06
1.0545e-05
6.56049e-06
7.80477e-06
5.15303e-06
6.52705e-06
3.76594e-06
5.58633e-06
2.46759e-06
5.22462e-06
1.21754e-06
4.97405e-06
4.83889e-06
-1.07739e-06
4.87417e-08
4.41023e-06
-2.40987e-05
1.19424e-05
-3.06448e-05
1.59819e-05
-1.84337e-05
1.725e-05
-6.4926e-06
1.76906e-05
-3.48467e-06
1.75044e-05
-2.3114e-07
1.76131e-05
-1.97791e-07
1.62194e-05
4.15971e-06
1.59549e-05
3.15572e-06
9.52824e-06
1.15646e-05
9.58586e-06
9.56861e-06
8.18708e-06
1.19438e-05
6.47497e-06
9.51698e-06
5.08024e-06
7.92189e-06
3.72534e-06
6.94127e-06
2.44575e-06
6.5041e-06
1.2077e-06
6.21198e-06
6.04652e-06
2.68026e-06
-2.63161e-06
7.04527e-06
-2.84631e-05
1.32636e-05
-3.68631e-05
1.71051e-05
-2.22748e-05
1.8453e-05
-7.8406e-06
1.84942e-05
-3.52561e-06
1.79898e-05
2.73256e-07
1.77645e-05
2.7469e-08
1.66973e-05
5.22681e-06
9.64142e-06
1.02115e-05
9.79158e-06
1.14143e-05
9.00297e-06
1.03571e-05
7.77769e-06
1.31691e-05
6.31579e-06
1.0979e-05
4.9873e-06
9.25046e-06
3.67545e-06
8.25308e-06
2.41951e-06
7.75989e-06
1.19602e-06
7.43534e-06
7.24249e-06
8.41354e-06
-1.10453e-05
1.08679e-05
-3.09169e-05
1.55079e-05
-4.1503e-05
1.83463e-05
-2.51132e-05
1.96061e-05
-9.1007e-06
1.91564e-05
-3.07586e-06
1.84585e-05
9.71297e-07
1.04682e-05
8.01777e-06
9.59148e-06
6.10347e-06
9.22206e-06
1.05809e-05
9.45424e-06
1.11821e-05
8.64051e-06
1.11709e-05
7.47896e-06
1.43308e-05
6.15306e-06
1.2305e-05
4.8824e-06
1.05211e-05
3.62164e-06
9.51377e-06
2.38946e-06
8.9919e-06
1.18264e-06
8.64206e-06
8.42511e-06
2.86763e-06
-1.39129e-05
1.13253e-05
-3.93748e-05
8.54716e-06
-3.87248e-05
1.0056e-05
-2.66217e-05
1.06268e-05
-9.67139e-06
1.02436e-05
-2.69289e-06
9.9193e-06
1.29558e-06
1.05748e-05
7.3621e-06
9.81095e-06
6.86722e-06
9.72304e-06
1.06689e-05
9.2952e-06
1.161e-05
8.35752e-06
1.21087e-05
7.35849e-06
1.53299e-05
6.05096e-06
1.36126e-05
4.80434e-06
1.17677e-05
3.57256e-06
1.07454e-05
2.36118e-06
1.02032e-05
1.16963e-06
9.83357e-06
9.59475e-06
8.20038e-06
-2.77506e-05
1.5794e-05
-3.04644e-05
2.60139e-05
-3.77239e-05
4.16086e-05
-4.70773e-05
5.54353e-05
-5.18354e-05
7.23515e-05
-5.72757e-05
8.30256e-05
-6.73582e-05
0.000104059
-6.63099e-05
0.000118498
-8.45673e-05
0.000135846
-7.47932e-05
0.000152589
-6.59192e-05
0.000179765
-4.42284e-05
0.000238163
-3.20516e-05
0.000218477
8.72572e-06
0.000247034
-4.87014e-05
0.00032325
-9.4519e-05
0.000345202
-5.97422e-06
0.000271914
9.20525e-05
0.000213784
8.70073e-06
0.000198366
-2.03308e-05
0.000162371
5.23336e-05
0.00014854
0.000171909
0.000219374
0.000303785
-2.96215e-06
-2.47884e-05
9.66411e-06
-4.30906e-05
1.83807e-05
-4.64405e-05
3.10042e-05
-5.97008e-05
2.8373e-05
-4.92041e-05
3.69764e-05
-6.58791e-05
4.03077e-05
-7.06895e-05
5.4228e-05
-8.02302e-05
6.7551e-05
-9.78903e-05
7.80707e-05
-8.53129e-05
8.76667e-05
-7.55153e-05
0.000126252
-8.28138e-05
0.000194007
-9.98069e-05
0.000254602
-5.18688e-05
0.000234477
-2.85761e-05
0.000183763
-4.38059e-05
0.000202482
-2.46927e-05
0.000270587
2.39475e-05
0.000250928
2.83597e-05
0.000188461
4.21366e-05
0.000151081
8.97138e-05
0.000208155
0.000114834
0.0002077
0.000219829
9.51272e-06
-3.43012e-05
1.92067e-06
-3.54986e-05
1.52467e-05
-5.97666e-05
1.99006e-05
-6.43546e-05
2.49782e-05
-5.42818e-05
3.18187e-05
-7.27197e-05
3.80714e-05
-7.69421e-05
5.141e-05
-9.35689e-05
6.55151e-05
-0.000111995
8.54833e-05
-0.000105281
0.000151896
-0.000141928
0.000158005
-8.89224e-05
0.000199529
-0.000141331
0.000236648
-8.8988e-05
0.000239573
-3.1501e-05
0.000214931
-1.91639e-05
0.000213781
-2.35427e-05
0.000252891
-1.51621e-05
0.000299265
-1.80143e-05
0.000356994
-1.5593e-05
0.000394651
5.20573e-05
0.000306546
0.000202938
0.000255442
0.000258805
1.09848e-05
-4.52859e-05
2.17386e-05
-4.62524e-05
9.94268e-06
-4.79706e-05
2.76869e-05
-8.20988e-05
1.68742e-05
-4.34691e-05
2.8163e-05
-8.40085e-05
3.56591e-05
-8.44382e-05
4.86297e-05
-0.000106539
6.07464e-05
-0.000124112
0.000113759
-0.000158294
7.2896e-05
-0.000101065
0.000176416
-0.000192443
0.000124655
-8.95705e-05
0.000122264
-8.65966e-05
0.000136685
-4.59223e-05
0.00016601
-4.84887e-05
0.00018817
-4.57031e-05
0.000206429
-3.34208e-05
0.00022857
-4.01551e-05
0.000259834
-4.68575e-05
0.000305115
6.77647e-06
0.000313089
0.000194964
0.000237179
0.000331352
1.08362e-05
-5.61221e-05
2.18495e-05
-5.72657e-05
3.4993e-05
-6.11141e-05
2.03028e-05
-6.74086e-05
4.54278e-05
-6.85941e-05
3.01955e-05
-6.87762e-05
2.30189e-05
-7.72616e-05
5.15286e-05
-0.000135049
5.25281e-05
-0.000125112
4.832e-05
-0.000154086
0.00010366
-0.000156405
9.54141e-05
-0.000184196
0.00011625
-0.000110407
8.88269e-05
-5.91734e-05
0.000159783
-0.000116878
0.000223722
-0.000112428
0.000287223
-0.000109204
0.000313275
-5.94725e-05
0.000323696
-5.05767e-05
0.000323779
-4.69408e-05
0.000311614
1.89424e-05
0.000327284
0.000179294
0.000250972
0.000313491
5.54072e-06
-6.16628e-05
1.07764e-05
-6.25014e-05
1.63815e-05
-6.67192e-05
1.61981e-05
-6.72253e-05
2.02311e-05
-7.2627e-05
2.55641e-05
-7.41093e-05
2.88461e-05
-8.05436e-05
3.49855e-05
-0.000141189
4.33855e-05
-0.000133511
3.77389e-05
-0.000148439
3.21236e-05
-0.00015079
-2.24446e-05
-0.000129628
5.29681e-06
-0.000138148
0.000110046
-0.000163923
0.000143888
-0.00015072
0.000171716
-0.000140256
0.000142943
-8.04308e-05
0.000156242
-7.27712e-05
0.000206674
-0.000101009
0.00023261
-7.28767e-05
0.00020729
4.42621e-05
0.000238636
0.000147948
0.000218818
0.000270789
4.8976e-06
-6.65604e-05
9.23624e-06
-6.68401e-05
1.35646e-05
-7.10476e-05
1.38815e-05
-6.75421e-05
1.83498e-05
-7.70954e-05
2.46341e-05
-8.03935e-05
2.7968e-05
-8.38775e-05
3.64506e-05
-0.000149671
5.85774e-05
-0.000155638
6.36581e-05
-0.00015352
5.60261e-05
-0.000143158
5.05128e-05
-0.000124115
7.67647e-05
-0.0001644
0.000130056
-0.000217214
0.000166471
-0.000187135
0.000113376
-8.71616e-05
0.000124706
-9.17607e-05
0.00017444
-0.000122505
0.000206537
-0.000133105
0.000225951
-9.22916e-05
0.000205673
6.45398e-05
0.000170962
0.00018266
0.00021271
0.00017707
2.6054e-06
-6.91658e-05
6.03714e-06
-7.02718e-05
5.33711e-06
-7.03475e-05
9.59111e-06
-7.17961e-05
8.53025e-06
-7.60345e-05
4.06695e-05
-0.000112533
2.95354e-05
-7.27433e-05
3.42933e-05
-0.000154429
3.69751e-05
-0.00015832
4.85859e-05
-0.000165131
8.29434e-05
-0.000177515
0.000117034
-0.000158205
0.0001344
-0.000181766
0.000109288
-0.000192102
0.000109238
-0.000187085
0.000119147
-9.70706e-05
0.000156305
-0.000128918
0.000167186
-0.000133386
0.000162889
-0.000128809
0.000167842
-9.72435e-05
0.000117081
0.0001153
8.03433e-05
0.000219398
0.000222963
7.00904e-05
2.46522e-06
-7.16311e-05
4.27324e-06
-7.20798e-05
4.13304e-06
-7.02073e-05
5.12011e-06
-7.27832e-05
4.30129e-05
-0.000113927
1.59767e-05
-8.54966e-05
1.78527e-05
-7.46193e-05
2.70344e-05
-0.000163611
3.19459e-05
-0.000163232
4.05457e-05
-0.000173731
4.97604e-05
-0.00018673
9.97487e-05
-0.000208194
0.000129355
-0.000211372
0.000132759
-0.000195505
8.97397e-05
-0.000144067
0.000109207
-0.000116537
0.000169994
-0.000189706
0.000160739
-0.000124131
0.000134393
-0.000102463
8.44167e-05
-4.72677e-05
2.68711e-05
0.000172846
1.95759e-06
0.000244311
0.000232005
-7.08552e-06
3.58648e-06
-7.52175e-05
6.94233e-06
-7.54357e-05
7.47218e-06
-7.07372e-05
7.896e-06
-7.3207e-05
1.69196e-05
-0.000122951
1.44433e-05
-8.30204e-05
1.89338e-05
-7.91098e-05
2.41682e-05
-0.000168845
2.8375e-05
-0.000167439
4.85775e-05
-0.000193933
4.01657e-05
-0.000178318
2.55676e-06
-0.000170585
-1.61757e-05
-0.00019264
-1.49196e-05
-0.000196761
3.98082e-06
-0.000162967
1.32875e-06
-0.000113885
-3.34406e-05
-0.000154936
-4.48183e-05
-0.000112753
-3.69702e-05
-0.000110311
-9.51765e-05
1.09387e-05
-8.00494e-05
0.000157718
-4.37048e-05
0.000207967
0.000221162
-3.28614e-05
4.5156e-06
-7.97331e-05
8.25362e-06
-7.91737e-05
1.53408e-05
-7.78243e-05
2.86817e-05
-8.6548e-05
1.1859e-06
-9.54551e-05
6.29801e-06
-8.81325e-05
1.67702e-05
-8.95819e-05
2.24655e-05
-0.00017454
2.00402e-05
-0.000165013
2.77617e-05
-0.000201655
1.70661e-05
-0.000167623
-3.89252e-05
-0.000114593
-3.32844e-05
-0.000198281
-2.87052e-05
-0.00020134
-1.32926e-05
-0.00017838
-2.23733e-05
-0.000104805
-1.70056e-06
-0.000175609
-3.16541e-05
-8.27996e-05
-8.14236e-05
-6.05419e-05
-0.00010087
3.03851e-05
-8.3278e-05
0.000140127
-5.68561e-05
0.000181545
0.000202361
-3.80552e-05
4.40866e-06
-8.41418e-05
3.83338e-06
-7.85984e-05
9.65289e-06
-8.36438e-05
8.14007e-06
-8.50352e-05
7.25399e-06
-9.4569e-05
7.94473e-06
-8.88232e-05
9.5211e-06
-9.11583e-05
1.4757e-05
-0.000179776
-1.5325e-05
-0.000134931
1.13662e-06
-0.000218116
2.30465e-05
-0.000189533
-4.73783e-05
-4.41686e-05
-2.43646e-05
-0.000221295
-2.41659e-05
-0.000201539
-2.09638e-05
-0.000181582
-1.35149e-05
-0.000112253
-3.86482e-06
-0.000185259
-8.18715e-06
-7.84773e-05
-7.30603e-05
4.33094e-06
-7.76167e-05
3.49417e-05
-3.70632e-05
9.95734e-05
-3.31682e-05
0.00017765
0.000196443
-2.72501e-05
4.76099e-06
-8.89028e-05
-2.12092e-06
-7.17165e-05
-1.07978e-05
-7.49669e-05
7.94362e-06
-0.000103777
-6.92401e-06
-7.97014e-05
1.20116e-05
-0.000107759
2.89077e-06
-8.20374e-05
-1.5741e-05
-0.000161145
-3.11767e-05
-0.000119495
-6.71064e-06
-0.000242582
1.97005e-05
-0.000215944
-4.0002e-05
1.55339e-05
-1.02458e-05
-0.000251051
9.7647e-06
-0.00022155
4.00221e-06
-0.000175819
-4.90966e-07
-0.00010776
-4.78018e-05
-0.000137948
-4.91002e-05
-7.71788e-05
-3.24622e-05
-1.23071e-05
-1.85108e-05
2.09904e-05
-9.2019e-06
9.02644e-05
-2.02972e-05
0.000188745
0.000198711
-2.25651e-05
1.99775e-05
-0.00010888
1.20552e-05
-6.37943e-05
-1.24272e-06
-6.16689e-05
-6.20227e-06
-9.88171e-05
1.97819e-06
-8.78819e-05
-7.3191e-07
-0.000105049
-1.59784e-05
-6.67909e-05
-9.57586e-05
-8.13645e-05
-9.88439e-06
-0.00020537
2.04066e-05
-0.000272873
1.14373e-05
-0.000206974
-8.83501e-07
2.78547e-05
-8.01618e-06
-0.000243918
5.66975e-06
-0.000235235
-8.55854e-06
-0.000161591
-7.9318e-06
-0.000108387
-7.14579e-06
-0.000138734
1.3838e-05
-9.81625e-05
5.07113e-05
-4.91802e-05
5.58058e-05
1.58959e-05
1.21909e-05
0.000133879
-1.74703e-05
0.000218406
0.000214691
-3.34511e-05
2.72247e-05
-0.000136105
1.46154e-05
-5.1185e-05
7.61928e-06
-5.46728e-05
2.25728e-06
-9.34551e-05
-1.18368e-05
-7.37879e-05
-2.66363e-05
-9.02492e-05
-5.98184e-05
-3.36088e-05
-8.80533e-05
-5.31297e-05
-2.21311e-06
-0.00029121
1.50543e-05
-0.000290141
-2.09257e-05
-0.000170994
6.40829e-05
-5.71539e-05
-1.48269e-08
-0.00017982
-0.000104657
-0.000130594
-0.00012348
-0.000142767
-8.71038e-05
-0.000144764
-6.55991e-05
-0.000160239
1.08032e-05
-0.000174565
2.74735e-05
-6.58505e-05
4.23035e-06
3.91389e-05
-3.54512e-05
0.000173561
-3.52851e-05
0.00021824
0.000220515
-4.11088e-05
2.46061e-05
-0.000160711
2.36537e-05
-5.02326e-05
1.12275e-05
-4.22466e-05
9.03348e-06
-9.12611e-05
-1.44287e-06
-6.33115e-05
-4.13174e-05
-5.03747e-05
-3.75868e-05
-3.73393e-05
-5.0269e-05
-4.04476e-05
-1.35372e-05
-0.000327941
-2.88812e-05
-0.000274797
-2.80608e-05
-0.000171815
4.56484e-06
-8.97796e-05
-5.09263e-05
-0.000124329
-6.53955e-05
-0.000116124
-8.33246e-05
-0.000124838
-9.36673e-05
-0.000134421
-0.000106483
-0.000147423
-0.000123281
-0.000157767
-0.000106691
-8.24399e-05
-0.000122044
5.44918e-05
-0.000103637
0.000155153
-8.29316e-05
0.000197535
0.000198596
-6.10125e-05
-2.59453e-06
-0.000158117
6.53619e-05
-0.000118189
1.84652e-05
4.65003e-06
2.28318e-05
-9.56276e-05
-1.59802e-05
-2.44995e-05
-3.90165e-05
-2.73384e-05
-3.67827e-05
-3.95731e-05
6.79945e-05
-0.000145225
1.11981e-05
-0.000271145
-9.2707e-05
-0.000170892
-4.10552e-05
-0.000223466
-2.62173e-05
-0.000104617
-6.8061e-05
-8.24857e-05
-7.3102e-05
-0.000111083
-9.24782e-05
-0.000105462
-0.000131012
-9.58874e-05
-0.000197493
-8.09423e-05
-0.000227668
-0.000127593
-0.00026553
-4.45778e-05
-0.000185903
-2.51351e-05
-0.000153914
0.000123164
-0.000119005
0.000162626
0.000157911
-7.83203e-05
0.000104023
-0.000262139
2.01236e-05
-3.42899e-05
4.1029e-06
2.06707e-05
4.25373e-05
-0.000134062
-1.28217e-05
3.08594e-05
-9.86304e-05
5.84703e-05
-2.962e-05
-0.000108584
1.3589e-05
-0.000188434
-6.60993e-05
-0.000191457
-7.56395e-05
-0.000161352
-9.41442e-05
-0.000204962
-7.55311e-05
-0.000123231
-7.24791e-05
-8.55378e-05
-8.48647e-05
-9.86978e-05
-0.000104641
-8.56852e-05
-0.00013888
-6.16484e-05
-0.000180786
-3.90367e-05
-0.000255716
-5.26619e-05
-0.000188417
-0.000111877
-0.000194782
-1.87708e-05
-0.00015447
8.28532e-05
-0.000118379
0.000126534
0.000124373
-8.4841e-05
-8.05777e-05
-0.000181562
-6.63063e-05
-4.85613e-05
5.48081e-06
-5.11164e-05
5.73553e-05
-0.000185937
1.50174e-05
7.31974e-05
1.44198e-05
5.90678e-05
-4.81752e-05
-4.59885e-05
-4.66945e-05
-0.000189914
-7.04658e-05
-0.000167685
-7.89994e-05
-0.000152818
-6.02002e-05
-0.000223761
-6.02556e-05
-0.000123175
-7.54154e-05
-7.0378e-05
-9.38061e-05
-8.03072e-05
-0.000103436
-7.60549e-05
-9.66687e-05
-6.84161e-05
-0.000114238
-2.14677e-05
-0.000130841
-3.60585e-05
-0.000225057
-1.76607e-05
-0.000242068
-1.7603e-06
-0.000161281
2.06633e-06
-0.000116735
8.19882e-05
9.61724e-05
-8.85344e-05
-3.75584e-05
-0.000144003
-3.43288e-05
-5.17908e-05
-5.21917e-05
-3.32536e-05
-8.71212e-05
-0.000151007
-1.95306e-05
5.60686e-06
3.49674e-05
4.5699e-06
4.58775e-05
-5.68986e-05
-2.33085e-07
-0.000143804
-3.33407e-05
-0.000134578
-5.42074e-05
-0.000131951
-7.5209e-05
-0.00020276
-0.000134435
-6.39491e-05
-9.47797e-05
-0.000110033
-8.56494e-05
-8.94375e-05
-0.000122217
-3.94876e-05
-0.00014733
-4.33024e-05
-0.000107767
-6.10315e-05
-0.000129299
-1.45261e-05
-0.000131797
-1.51631e-05
-0.000134001
4.43608e-07
-0.000169562
3.76276e-05
-0.000157211
6.96375e-05
7.18096e-05
-0.000132849
-1.95778e-05
-0.000124426
-1.79126e-05
-5.3456e-05
-1.13899e-05
-3.97763e-05
-5.42944e-05
-0.000108103
-1.86624e-05
-3.00251e-05
2.53102e-05
-3.94027e-05
2.08194e-05
-5.24078e-05
-2.12097e-05
-0.000101775
-4.23985e-05
-0.000113389
-4.84695e-05
-0.00012588
-0.000137456
-0.000113773
-0.000100874
-0.000100531
-0.000148334
-6.25737e-05
-0.000145545
-9.22267e-05
-0.000139684
-4.53489e-05
-0.000131509
-5.14776e-05
-0.000156485
-3.60551e-05
-0.000114128
-5.68826e-05
-0.000110364
-1.89274e-05
-0.000110117
1.96114e-07
-0.000104122
3.16327e-05
-8.60809e-05
5.15968e-05
5.93701e-05
-7.36413e-05
-2.34155e-05
-0.00010101
-1.90187e-05
-5.78528e-05
-3.39202e-06
-5.5403e-05
-4.04046e-05
-7.10899e-05
-2.14528e-05
-4.8977e-05
1.95593e-05
-8.0415e-05
3.0571e-05
-6.34196e-05
6.51814e-06
-7.7722e-05
-1.21611e-05
-9.47098e-05
-3.34169e-05
-0.000104625
-5.01581e-05
-9.70317e-05
-6.51872e-05
-8.55024e-05
-5.98741e-05
-6.78869e-05
-9.86984e-05
-5.34025e-05
-7.53916e-05
-6.86556e-05
-7.90841e-05
-4.77852e-05
-7.54762e-05
-3.9663e-05
-9.82691e-05
-3.40897e-05
-0.000100927
-1.62696e-05
-9.74659e-05
-3.26485e-06
-9.05334e-05
2.47003e-05
-7.84515e-05
3.9515e-05
5.11472e-05
-7.02285e-05
-2.19877e-05
-7.90222e-05
-1.49555e-05
-6.4885e-05
-1.37932e-05
-5.65653e-05
1.30213e-05
-9.79048e-05
2.06085e-05
-5.65645e-05
3.53277e-06
-6.33393e-05
2.35011e-06
-6.2237e-05
1.18515e-05
-8.72234e-05
-1.8614e-06
-8.09968e-05
-1.87124e-05
-8.77735e-05
-3.46318e-05
-8.11124e-05
-5.01356e-05
-6.99987e-05
-6.71012e-05
-5.09213e-05
-7.16037e-05
-4.89e-05
-5.84671e-05
-8.17923e-05
-7.21894e-05
-3.4063e-05
-8.03244e-05
-3.1528e-05
-8.71035e-05
-2.73106e-05
-8.50915e-05
-1.82815e-05
-8.55961e-05
-2.7602e-06
-8.05042e-05
1.96086e-05
-7.48306e-05
3.38415e-05
4.52202e-05
-6.89035e-05
-2.32525e-05
-5.57697e-05
-9.06985e-06
-7.90679e-05
5.06857e-06
-7.07039e-05
-8.38566e-06
-8.44508e-05
9.99062e-06
-7.49408e-05
7.30396e-06
-6.06526e-05
5.60074e-07
-5.54932e-05
-1.62687e-05
-7.03947e-05
-2.95648e-05
-6.77008e-05
-4.79488e-05
-6.93896e-05
-5.96391e-05
-6.94222e-05
-6.69138e-05
-6.2724e-05
-6.69407e-05
-5.08945e-05
-6.81533e-05
-4.76874e-05
-0.000103755
-4.61905e-05
-6.55814e-05
-7.22366e-05
-6.82593e-05
-2.88501e-05
-7.33857e-05
-2.21842e-05
-7.62334e-05
-1.54338e-05
-7.58013e-05
-3.19231e-06
-7.24314e-05
1.62387e-05
-6.8999e-05
3.04091e-05
4.18753e-05
-6.56542e-05
1.11221e-05
-6.6892e-05
6.57234e-07
-6.86031e-05
-4.38865e-06
-6.56581e-05
-1.49622e-05
-7.38773e-05
-2.127e-05
-6.8633e-05
-1.07225e-05
-7.12001e-05
5.68028e-06
-7.18961e-05
-6.20018e-06
-5.85144e-05
-2.15128e-05
-5.23883e-05
-3.5087e-05
-5.58153e-05
-4.81041e-05
-5.64051e-05
-5.51119e-05
-5.57162e-05
-5.16743e-05
-5.43321e-05
-4.66309e-05
-5.27308e-05
-3.99046e-05
-5.29169e-05
-6.23401e-05
-4.98011e-05
-6.58256e-05
-2.53646e-05
-6.07523e-05
-2.72575e-05
-6.59576e-05
-1.02286e-05
-6.6738e-05
-2.41185e-06
-6.3007e-05
1.25076e-05
-5.74281e-05
2.48301e-05
3.38834e-05
-4.94362e-05
-3.63166e-06
-6.32604e-05
-5.16563e-06
-6.70693e-05
-3.3036e-06
-6.75202e-05
-9.34652e-06
-6.78344e-05
-1.20443e-05
-6.59353e-05
-1.95818e-05
-6.36626e-05
-2.69289e-05
-6.45492e-05
-2.07845e-05
-6.4659e-05
-3.35258e-05
-3.9647e-05
-4.96024e-05
-3.97388e-05
-4.56672e-05
-6.03403e-05
-4.24473e-05
-5.89362e-05
-3.75258e-05
-5.92537e-05
-4.73812e-05
-4.28755e-05
-6.01606e-05
-4.01376e-05
-6.93965e-05
-4.05653e-05
-4.7172e-05
-4.75892e-05
-5.90281e-05
-1.54014e-05
-5.99559e-05
-9.30081e-06
-5.94015e-05
-2.96631e-06
-5.74835e-05
1.05896e-05
-5.38637e-05
2.12103e-05
2.78606e-05
-4.78408e-05
-3.64179e-07
-6.28963e-05
-3.61872e-06
-6.38149e-05
-6.77095e-06
-6.43681e-05
-1.08582e-05
-6.37473e-05
-1.37249e-05
-6.30687e-05
-1.53461e-05
-6.20415e-05
-1.80334e-05
-6.18619e-05
-2.23628e-05
-6.03297e-05
-2.8352e-05
-3.36577e-05
-3.51336e-05
-3.29572e-05
-4.33976e-05
-5.20764e-05
-5.13602e-05
-5.09737e-05
-5.78956e-05
-5.27184e-05
-4.87154e-05
-5.20557e-05
-5.86112e-05
-3.02419e-05
-5.11851e-05
-4.79916e-05
-7.09549e-05
-2.78194e-05
-5.03076e-05
-3.60487e-05
-5.41406e-05
-5.46793e-06
-5.30935e-05
-4.01341e-06
-5.00714e-05
7.56754e-06
-4.51203e-05
1.62593e-05
2.33594e-05
-4.0619e-05
-2.14299e-06
-6.07535e-05
-4.31693e-06
-6.16411e-05
-6.30885e-06
-6.23763e-05
-9.52464e-06
-6.05316e-05
-1.28612e-05
-5.97322e-05
-1.76141e-05
-5.72887e-05
-2.24989e-05
-5.69772e-05
-2.506e-05
-5.77686e-05
-2.92204e-05
-2.94974e-05
-3.33634e-05
-2.88143e-05
-3.84656e-05
-4.69744e-05
-4.58004e-05
-4.36391e-05
-5.02823e-05
-4.82366e-05
-5.23121e-05
-5.0026e-05
-5.53505e-05
-2.72035e-05
-5.50685e-05
-4.82736e-05
-5.75837e-05
-2.53043e-05
-6.44278e-05
-2.92046e-05
-4.86447e-05
-2.1251e-05
-4.92097e-05
-3.44843e-06
-4.56656e-05
4.02346e-06
-4.3932e-05
1.45257e-05
2.19998e-05
-4.25723e-05
-9.64209e-07
-5.97894e-05
-2.24049e-06
-6.03649e-05
-5.19609e-06
-5.94209e-05
-7.19569e-06
-5.85322e-05
-9.50128e-06
-5.74268e-05
-1.37833e-05
-5.30067e-05
-1.85546e-05
-5.2206e-05
-2.06031e-05
-5.57202e-05
-2.103e-05
-2.90707e-05
-2.08107e-05
-2.90337e-05
-3.89856e-05
-2.87996e-05
-3.17721e-05
-5.08527e-05
-3.29193e-05
-4.70895e-05
-4.54593e-05
-3.74862e-05
-2.66625e-05
-4.60003e-05
-5.00033e-05
-2.49329e-05
-3.89302e-05
-3.63774e-05
-5.1832e-05
-1.63028e-05
-4.05754e-05
-3.25077e-05
-4.38895e-05
-1.3437e-07
-4.19111e-05
2.04502e-06
-3.93656e-05
1.19802e-05
1.9825e-05
-3.71908e-05
-1.2217e-06
-5.85678e-05
-2.4699e-06
-5.91168e-05
-5.43024e-06
-5.64607e-05
-7.48941e-06
-5.64732e-05
-1.02238e-05
-5.46926e-05
-1.44878e-05
-4.8743e-05
-1.91456e-05
-4.75483e-05
-2.19818e-05
-5.28841e-05
-2.41343e-05
-2.69184e-05
-2.46256e-05
-2.85426e-05
-2.781e-05
-2.56154e-05
-2.34943e-05
-5.51685e-05
-2.69474e-05
-4.36365e-05
-2.78165e-05
-3.66172e-05
-3.04234e-05
-4.33935e-05
-4.09815e-05
-1.43749e-05
-4.11183e-05
-3.62407e-05
-4.23745e-05
-1.50468e-05
-5.18875e-05
-2.29948e-05
-3.92561e-05
-1.27658e-05
-3.92424e-05
2.03115e-06
-3.52747e-05
8.01239e-06
1.72167e-05
-3.26665e-05
-1.34596e-06
-5.72218e-05
-2.73513e-06
-5.77277e-05
-3.3434e-06
-5.58526e-05
-2.31321e-06
-5.75036e-05
-2.73833e-07
-5.67322e-05
-1.42976e-05
-3.47193e-05
-2.76328e-05
-3.42133e-05
-2.4713e-05
-5.58041e-05
-2.16472e-05
-2.99843e-05
-2.12346e-05
-2.89553e-05
-1.75346e-05
-2.93154e-05
-2.25739e-05
-5.01293e-05
-2.69042e-05
-3.93063e-05
-2.66322e-05
-3.68893e-05
-4.17463e-05
-2.82795e-05
-2.44925e-05
-3.16289e-05
-3.50698e-05
-2.56635e-05
-3.51912e-05
-1.49255e-05
-4.09452e-05
-1.72409e-05
-3.11458e-05
-2.25652e-05
-3.49601e-05
5.84525e-06
-3.27646e-05
5.81678e-06
1.58621e-05
-3.14101e-05
-2.05408e-06
-5.51677e-05
-4.15996e-06
-5.5622e-05
-5.93048e-06
-5.40822e-05
-8.13281e-06
-5.53014e-05
-1.05667e-05
-5.42984e-05
-1.19381e-05
-3.3348e-05
-1.40844e-05
-3.2067e-05
-1.54331e-05
-5.44555e-05
-1.26137e-05
-3.28038e-05
-1.26454e-05
-2.89238e-05
-1.22681e-05
-2.96929e-05
-1.68188e-05
-4.55786e-05
-2.197e-05
-3.41552e-05
-2.37678e-05
-3.50916e-05
-2.41393e-05
-2.79081e-05
-2.32977e-05
-3.24706e-05
-3.6409e-05
-1.25524e-05
-2.87801e-05
-2.25546e-05
-3.48464e-05
-1.11747e-05
-4.30987e-05
-1.4313e-05
-3.12471e-05
-6.00646e-06
-2.978e-05
4.34955e-06
1.29523e-05
-2.68703e-05
-1.48441e-06
-5.36834e-05
-2.97601e-06
-5.41305e-05
-4.85549e-06
-5.22029e-05
-5.92737e-06
-5.42296e-05
-8.01033e-06
-5.22154e-05
-9.70599e-06
-3.16524e-05
-1.36967e-05
-2.80763e-05
-2.40965e-05
-4.40557e-05
-1.68304e-05
-4.007e-05
-7.1749e-06
-3.85793e-05
-1.54012e-05
-2.14667e-05
-2.34177e-05
-3.75622e-05
-2.13144e-05
-3.62586e-05
-2.39535e-05
-3.24526e-05
-2.3151e-05
-2.87107e-05
-3.48801e-05
-2.07416e-05
-2.73328e-05
-2.00998e-05
-2.89607e-05
-2.09267e-05
-2.93944e-05
-1.0741e-05
-3.22971e-05
-1.14104e-05
-2.38221e-05
-1.44815e-05
-2.61747e-05
6.70209e-06
1.18007e-05
-2.50231e-05
-9.15007e-07
-5.27685e-05
-2.08184e-06
-5.29639e-05
-3.63102e-06
-5.06538e-05
-6.21416e-06
-5.16465e-05
-1.44739e-05
-4.39557e-05
-2.86145e-06
-4.32649e-05
-7.20784e-06
-2.373e-05
-1.07146e-05
-4.05491e-05
-1.3442e-05
-3.73427e-05
-9.86357e-06
-4.21579e-05
-9.71463e-06
-2.16157e-05
-2.53119e-05
-2.19651e-05
-1.97725e-05
-4.17981e-05
-2.02252e-05
-3.2e-05
-2.02798e-05
-2.86562e-05
-2.03142e-05
-2.07072e-05
-1.89006e-05
-2.15134e-05
-2.51707e-05
-1.46566e-05
-2.06415e-05
-1.52702e-05
-2.5394e-05
-6.65785e-06
-3.40997e-05
-5.77581e-06
-2.35715e-05
-3.82613e-06
1.26297e-05
-2.44005e-05
-9.47898e-07
-5.18207e-05
-2.17381e-06
-5.17381e-05
-2.18166e-06
-5.0646e-05
-4.62058e-06
-4.92076e-05
-5.95973e-06
-4.26166e-05
-5.53861e-06
-4.36861e-05
-4.67157e-06
-2.45971e-05
-1.81459e-05
-2.70748e-05
-1.09897e-05
-4.4499e-05
-1.00185e-05
-4.31292e-05
-8.87397e-06
-2.27604e-05
-1.00105e-05
-2.08287e-05
-1.44416e-05
-3.7367e-05
-1.69876e-05
-2.9454e-05
-1.8707e-05
-2.69369e-05
-1.77753e-05
-2.16389e-05
-2.44015e-05
-1.48872e-05
-2.36429e-05
-1.54152e-05
-2.5479e-05
-1.34341e-05
-2.65433e-05
-5.59349e-06
-2.712e-05
-5.19901e-06
-2.96858e-05
-1.26034e-06
4.07473e-06
-2.11308e-05
-5.9213e-07
-5.12287e-05
-1.05871e-06
-5.12717e-05
-1.46406e-07
-5.15584e-05
-1.91346e-07
-4.91627e-05
-1.23953e-05
-3.04127e-05
-7.43018e-06
-4.86513e-05
-6.27978e-06
-2.57476e-05
-8.591e-06
-2.47637e-05
-6.88338e-06
-4.62067e-05
-8.91845e-06
-4.10942e-05
-9.06375e-06
-2.26152e-05
-1.0032e-05
-1.98605e-05
-1.30882e-05
-3.43109e-05
-1.45421e-05
-2.80002e-05
-1.50987e-05
-2.63803e-05
-1.53397e-05
-2.13979e-05
-1.50778e-05
-1.5149e-05
-1.28051e-05
-1.7688e-05
-1.76287e-05
-8.61046e-06
-1.85769e-05
-4.64522e-06
-2.01299e-05
-3.64598e-06
-2.19931e-05
6.02926e-07
1.0688e-06
-1.89871e-05
-9.37811e-07
-5.0291e-05
-1.85727e-06
-5.03522e-05
-2.95249e-06
-5.04632e-05
-3.42475e-06
-4.86905e-05
-5.20007e-06
-2.86374e-05
-4.03691e-06
-4.98146e-05
-5.07987e-06
-2.47048e-05
-6.43199e-06
-2.34117e-05
-8.78039e-06