/*--------------------------------*- C++ -*----------------------------------*\
| =========                 |                                                 |
| \\      /  F ield         | foam-extend: Open Source CFD                    |
|  \\    /   O peration     | Version:     4.1                                |
|   \\  /    A nd           | Web:         http://www.foam-extend.org         |
|    \\/     M anipulation  |                                                 |
\*---------------------------------------------------------------------------*/
FoamFile
{
    version     2.0;
    format      ascii;
    class       surfaceScalarField;
    location    "0.15";
    object      phi_0;
}
// * * * * * * * * * * * * * * * * * * * * * * * * * * * * * * * * * * * * * //

dimensions      [0 3 -1 0 0 0 0];

internalField   nonuniform List<scalar> 
4432
(
1.98594e-06
-1.98594e-06
5.42001e-06
-3.43406e-06
9.15241e-06
-3.7324e-06
1.32287e-05
-4.07631e-06
1.77273e-05
-4.4986e-06
2.328e-05
-5.55268e-06
2.64768e-05
-3.1968e-06
3.6287e-05
-9.81016e-06
4.55168e-05
-9.2298e-06
7.54364e-05
-2.99196e-05
8.84881e-05
-1.30517e-05
0.000148264
-5.97754e-05
0.000175413
-2.71489e-05
0.000184755
-9.3427e-06
0.000121859
6.28966e-05
0.000101532
2.03266e-05
8.32491e-05
1.82829e-05
5.9267e-05
2.39821e-05
5.57446e-05
3.52242e-06
8.27988e-05
-2.70542e-05
8.72816e-05
-4.48275e-06
6.77281e-05
1.95535e-05
6.77281e-05
2.05199e-06
-4.03793e-06
5.44507e-06
-6.82715e-06
9.15147e-06
-7.43879e-06
1.32e-05
-8.12482e-06
1.77492e-05
-9.04779e-06
2.34001e-05
-1.12036e-05
2.64092e-05
-6.20597e-06
3.59951e-05
-1.9396e-05
4.49046e-05
-1.81393e-05
7.3828e-05
-5.8843e-05
9.01166e-05
-2.93403e-05
0.000148743
-0.000118402
0.000168804
-4.721e-05
0.000188546
-2.90842e-05
0.000164017
8.7425e-05
9.63874e-05
8.79563e-05
4.72392e-05
6.74311e-05
4.12495e-05
2.99719e-05
1.39333e-05
3.08386e-05
5.8732e-05
-7.1853e-05
8.0053e-05
-2.58038e-05
3.16708e-05
6.79357e-05
9.93989e-05
2.05538e-06
-6.0933e-06
5.38125e-06
-1.0153e-05
9.04011e-06
-1.10977e-05
1.30929e-05
-1.21776e-05
1.73013e-05
-1.32562e-05
2.2723e-05
-1.66253e-05
2.63159e-05
-9.79888e-06
3.4098e-05
-2.71781e-05
3.98516e-05
-2.38929e-05
4.17846e-05
-6.0776e-05
7.95816e-05
-6.71373e-05
0.00011769
-0.00015651
0.000124496
-5.40165e-05
0.000107843
-1.24311e-05
0.000109578
8.56904e-05
8.90479e-05
0.000108486
6.33655e-05
9.31135e-05
1.80262e-05
7.53111e-05
5.20563e-05
-3.19146e-06
8.57345e-05
-0.000105531
9.49079e-05
-3.49772e-05
8.49565e-05
7.78871e-05
0.000184356
2.32741e-06
-8.42071e-06
5.46609e-06
-1.32917e-05
8.96223e-06
-1.45938e-05
1.2922e-05
-1.61374e-05
1.75868e-05
-1.7921e-05
2.33397e-05
-2.23782e-05
2.63824e-05
-1.28416e-05
3.27355e-05
-3.35312e-05
3.65953e-05
-2.77527e-05
3.64372e-05
-6.06178e-05
3.20881e-05
-6.27882e-05
1.91489e-05
-0.000143571
6.32658e-05
-9.81334e-05
0.000126209
-7.53745e-05
8.80946e-05
0.000123805
7.83423e-05
0.000118238
5.33554e-05
0.0001181
7.34456e-05
5.5221e-05
0.000100762
-3.05079e-05
6.39748e-05
-6.8744e-05
5.93957e-05
-3.03981e-05
4.29692e-05
9.43137e-05
0.000227325
2.21028e-06
-1.0631e-05
5.28156e-06
-1.6363e-05
8.7268e-06
-1.8039e-05
1.26983e-05
-2.01088e-05
1.78871e-05
-2.31098e-05
2.30294e-05
-2.75205e-05
2.50337e-05
-1.48459e-05
3.08182e-05
-3.93157e-05
3.41021e-05
-3.10367e-05
3.3868e-05
-6.03837e-05
4.58626e-05
-7.47828e-05
4.62796e-06
-0.000102336
-1.06506e-05
-8.28549e-05
1.36621e-05
-9.96871e-05
6.65555e-05
7.09115e-05
0.000130252
5.45418e-05
0.000116993
0.00013136
0.000122102
5.01113e-05
8.92088e-05
2.38569e-06
6.52742e-05
-4.48094e-05
4.84769e-05
-1.36006e-05
3.97447e-05
0.000103046
0.000267069
3.07664e-06
-1.37076e-05
5.56022e-06
-1.88465e-05
8.54646e-06
-2.10253e-05
1.23898e-05
-2.39521e-05
1.7531e-05
-2.8251e-05
2.20552e-05
-3.20447e-05
4.50191e-05
-3.78099e-05
2.96474e-05
-2.3944e-05
5.10562e-05
-5.24455e-05
4.31447e-05
-5.24722e-05
4.6207e-05
-7.7845e-05
2.68609e-06
-5.8815e-05
-2.11101e-05
-5.90587e-05
-1.78872e-05
-0.00010291
7.4492e-05
-2.14676e-05
6.6132e-05
6.29017e-05
6.61603e-05
0.000131331
7.62246e-05
4.00469e-05
8.25987e-05
-3.98835e-06
5.32165e-05
-1.54274e-05
4.0368e-05
-7.51599e-07
3.70515e-05
0.000106362
0.000304121
2.19402e-06
-1.59016e-05
4.90165e-06
-2.15542e-05
8.12367e-06
-2.42473e-05
1.18216e-05
-2.76501e-05
1.64901e-05
-3.29195e-05
2.04389e-05
-3.59935e-05
2.37481e-05
-4.11191e-05
3.05457e-05
-3.07416e-05
4.70447e-05
-6.89445e-05
4.87433e-05
-5.41709e-05
2.71666e-05
-5.62683e-05
2.31404e-05
-5.47888e-05
-4.15675e-05
5.64923e-06
-8.31104e-05
-6.13672e-05
-4.74056e-05
-5.71724e-05
4.99792e-06
1.04981e-05
3.04325e-05
0.000105897
1.52107e-05
5.52686e-05
5.68738e-05
-4.56517e-05
7.93677e-05
-3.79209e-05
5.15005e-05
2.71159e-05
3.56647e-05
0.000122198
0.000339786
3.50824e-06
-1.94099e-05
4.64919e-06
-2.26951e-05
7.66615e-06
-2.72643e-05
1.12028e-05
-3.11867e-05
1.59766e-05
-3.76934e-05
2.00343e-05
-4.00512e-05
3.5112e-05
-5.61969e-05
4.92939e-05
-4.49234e-05
4.97408e-05
-6.93913e-05
5.21802e-05
-5.66103e-05
4.4829e-05
-4.89171e-05
6.93862e-06
-1.68985e-05
-1.61816e-05
2.87695e-05
-6.51718e-05
-1.23771e-05
-9.94126e-05
-2.29316e-05
-7.64206e-05
-1.24938e-05
7.76612e-06
2.17101e-05
4.43645e-05
1.86703e-05
6.18678e-05
-6.31548e-05
6.41898e-05
-4.02429e-05
7.06452e-05
2.06603e-05
3.56095e-05
0.000157234
0.000375395
8.75027e-07
-8.75027e-07
4.65259e-06
-3.7773e-06
9.50172e-06
-4.84945e-06
1.29581e-05
-3.45627e-06
1.41599e-05
-1.20191e-06
1.50811e-05
-9.2126e-07
1.52827e-05
-2.01612e-07
1.52475e-05
3.52476e-08
1.49231e-05
3.2446e-07
1.43588e-05
5.645e-07
1.42714e-05
8.7408e-08
1.61502e-05
-1.87903e-06
8.44473e-06
7.70521e-06
6.6847e-06
1.75997e-06
4.90984e-06
1.77497e-06
3.58729e-06
1.32269e-06
2.33384e-06
1.25347e-06
1.15067e-06
1.18307e-06
1.15045e-06
4.40979e-07
-1.31635e-06
5.34827e-06
-8.68417e-06
1.07399e-05
-1.02415e-05
1.40142e-05
-6.73051e-06
1.53223e-05
-2.51007e-06
1.61804e-05
-1.7794e-06
1.63338e-05
-3.54982e-07
1.63142e-05
5.49991e-08
1.5848e-05
7.90734e-07
1.48005e-05
1.61188e-06
1.51833e-05
-2.95643e-07
9.56269e-06
3.74142e-06
8.90016e-06
8.3677e-06
6.80693e-06
3.8533e-06
5.16819e-06
3.41379e-06
3.76531e-06
2.72554e-06
2.45444e-06
2.56414e-06
1.20996e-06
2.42722e-06
2.36024e-06
9.42407e-08
-1.41092e-06
4.71162e-06
-1.33011e-05
1.069e-05
-1.62203e-05
1.43407e-05
-1.03811e-05
1.56426e-05
-3.8121e-06
1.64717e-05
-2.60846e-06
1.65958e-05
-4.79217e-07
1.6641e-05
9.80759e-09
1.59173e-05
1.5144e-06
1.5005e-05
2.52426e-06
1.55068e-05
-7.97496e-07
9.48608e-06
9.76209e-06
8.8429e-06
9.01084e-06
6.79465e-06
5.90157e-06
5.16373e-06
5.04473e-06
3.75179e-06
4.13742e-06
2.44808e-06
3.86766e-06
1.20687e-06
3.66816e-06
3.56697e-06
-3.86398e-07
-1.02483e-06
4.7693e-06
-1.84564e-05
1.13554e-05
-2.28067e-05
1.51296e-05
-1.41552e-05
1.64546e-05
-5.13721e-06
1.68176e-05
-2.97153e-06
1.67182e-05
-3.79896e-07
1.68133e-05
-8.54182e-08
1.55692e-05
2.75852e-06
1.52383e-05
2.85522e-06
9.38447e-06
5.05642e-06
9.64452e-06
9.50206e-06
8.25793e-06
1.03974e-05
6.46269e-06
7.69677e-06
5.07587e-06
6.43151e-06
3.70919e-06
5.504e-06
2.4304e-06
5.14627e-06
1.19912e-06
4.89919e-06
4.76598e-06
-1.11296e-06
8.78284e-08
4.3575e-06
-2.39265e-05
1.18213e-05
-3.02707e-05
1.5791e-05
-1.81248e-05
1.70342e-05
-6.3805e-06
1.74624e-05
-3.39983e-06
1.72685e-05
-1.86063e-07
1.73658e-05
-1.82856e-07
1.59867e-05
4.13767e-06
1.57271e-05
3.11489e-06
9.38493e-06
1.13987e-05
9.44444e-06
9.44261e-06
8.06466e-06
1.17771e-05
6.37787e-06
9.38349e-06
5.00391e-06
7.80537e-06
3.66902e-06
6.83878e-06
2.4088e-06
6.40632e-06
1.18941e-06
6.11836e-06
5.95529e-06
2.56242e-06
-2.47487e-06
6.89393e-06
-2.82576e-05
1.31328e-05
-3.65098e-05
1.69159e-05
-2.19078e-05
1.82218e-05
-7.68644e-06
1.82503e-05
-3.42831e-06
1.77388e-05
3.25373e-07
1.75194e-05
3.64884e-08
1.64674e-05
5.18964e-06
9.50201e-06
1.00804e-05
9.64654e-06
1.12544e-05
8.86786e-06
1.02213e-05
7.66154e-06
1.29834e-05
6.22095e-06
1.0824e-05
4.91212e-06
9.11407e-06
3.61981e-06
8.13094e-06
2.38288e-06
7.64308e-06
1.17789e-06
7.32316e-06
7.1331e-06
8.38972e-06
-1.08648e-05
1.07616e-05
-3.06291e-05
1.53378e-05
-4.10859e-05
1.81397e-05
-2.47096e-05
1.93578e-05
-8.90444e-06
1.892e-05
-2.99036e-06
1.82181e-05
1.02726e-06
1.03247e-05
7.92983e-06
9.45638e-06
6.05797e-06
9.08307e-06
1.04538e-05
9.31203e-06
1.10256e-05
8.50985e-06
1.10236e-05
7.36606e-06
1.41271e-05
6.06052e-06
1.21294e-05
4.80884e-06
1.03656e-05
3.5667e-06
9.37293e-06
2.35321e-06
8.8564e-06
1.16469e-06
8.51151e-06
8.29772e-06
3.06654e-06
-1.39314e-05
1.13897e-05
-3.89521e-05
8.48725e-06
-3.81836e-05
9.95398e-06
-2.61765e-05
1.05068e-05
-9.45729e-06
1.01261e-05
-2.60954e-06
9.79059e-06
1.36285e-06
1.04271e-05
7.29333e-06
9.67991e-06
6.80523e-06
9.58507e-06
1.05487e-05
9.15555e-06
1.14551e-05
8.23164e-06
1.19475e-05
7.24586e-06
1.51128e-05
5.95909e-06
1.3416e-05
4.73147e-06
1.15931e-05
3.51816e-06
1.05861e-05
2.3252e-06
1.00492e-05
1.15181e-06
9.68477e-06
9.4495e-06
8.15437e-06
-2.75642e-05
1.57086e-05
-3.02493e-05
2.5868e-05
-3.74237e-05
4.12664e-05
-4.6585e-05
5.49774e-05
-5.14044e-05
7.16866e-05
-5.67604e-05
8.22265e-05
-6.67368e-05
0.000102944
-6.56409e-05
0.000117172
-8.36194e-05
0.000134337
-7.37756e-05
0.000151598
-6.61775e-05
0.0001801
-4.54003e-05
0.000238664
-2.97947e-05
0.000216482
9.80492e-06
0.000242212
-4.86623e-05
0.000320533
-9.0814e-05
0.000329599
1.26432e-05
0.000260799
8.74704e-05
0.00020772
-1.00759e-05
0.000191832
-2.43547e-05
0.000153816
5.86765e-05
0.000144437
0.000166612
0.000221667
0.000298166
-2.92064e-06
-2.46436e-05
9.60896e-06
-4.27789e-05
1.822e-05
-4.60348e-05
3.07093e-05
-5.90743e-05
2.81157e-05
-4.88108e-05
3.66498e-05
-6.52945e-05
3.99492e-05
-7.00362e-05
5.36417e-05
-7.93334e-05
6.67182e-05
-9.66958e-05
7.68309e-05
-8.38883e-05
8.52992e-05
-7.46459e-05
0.000121232
-8.13328e-05
0.000190694
-9.92565e-05
0.000248449
-4.79501e-05
0.000226621
-2.68344e-05
0.000176508
-4.07016e-05
0.000202007
-1.28558e-05
0.000265003
2.44748e-05
0.000234635
2.02919e-05
0.000176697
3.3583e-05
0.000148045
8.73285e-05
0.000209634
0.000105022
0.000227083
0.000204218
9.42888e-06
-3.40725e-05
1.90692e-06
-3.5257e-05
1.51041e-05
-5.92319e-05
1.97052e-05
-6.36754e-05
2.47642e-05
-5.38698e-05
3.15113e-05
-7.20416e-05
3.76494e-05
-7.61742e-05
5.07848e-05
-9.24688e-05
6.47422e-05
-0.000110653
8.46797e-05
-0.000103826
0.000148525
-0.000138491
0.000153414
-8.62218e-05
0.00019273
-0.000138573
0.000230687
-8.59069e-05
0.000230494
-2.66411e-05
0.000205839
-1.60464e-05
0.000212645
-1.96619e-05
0.000254854
-1.77347e-05
0.000299192
-2.40466e-05
0.000352196
-1.94209e-05
0.000374292
6.52322e-05
0.000284561
0.000194753
0.00026055
0.000251093
1.08375e-05
-4.491e-05
2.145e-05
-4.58694e-05
9.78842e-06
-4.75704e-05
2.73856e-05
-8.12726e-05
1.66733e-05
-4.31575e-05
2.78417e-05
-8.321e-05
3.53069e-05
-8.36395e-05
4.81406e-05
-0.000105302
6.0475e-05
-0.000122988
0.000113315
-0.000156666
7.35394e-05
-9.87152e-05
0.000177767
-0.000190449
0.000124519
-8.53248e-05
0.000121617
-8.30047e-05
0.000135443
-4.04675e-05
0.000162277
-4.28802e-05
0.000188143
-4.55281e-05
0.000206019
-3.56105e-05
0.000226394
-4.44218e-05
0.000252736
-4.57632e-05
0.000299802
1.81668e-05
0.000299344
0.00019521
0.000236228
0.000323667
1.07215e-05
-5.56315e-05
2.16142e-05
-5.67621e-05
3.45936e-05
-6.05498e-05
2.00975e-05
-6.67765e-05
4.49239e-05
-6.79839e-05
2.983e-05
-6.81161e-05
2.26881e-05
-7.64975e-05
5.10109e-05
-0.000133625
5.19154e-05
-0.000123892
4.87683e-05
-0.000153519
0.000106523
-0.000156469
0.000101693
-0.00018562
0.000120993
-0.000104625
8.93117e-05
-5.13231e-05
0.000157182
-0.000108338
0.000225039
-0.000110737
0.000287554
-0.000108043
0.000310146
-5.82021e-05
0.000316579
-5.08552e-05
0.000314917
-4.41016e-05
0.000302637
3.0447e-05
0.000316678
0.000181169
0.000250553
0.000302354
5.47431e-06
-6.11058e-05
1.06458e-05
-6.19336e-05
1.61731e-05
-6.60771e-05
1.6e-05
-6.66033e-05
1.99618e-05
-7.19457e-05
2.52591e-05
-7.34134e-05
2.84904e-05
-7.97288e-05
3.46636e-05
-0.000139798
4.29555e-05
-0.000132184
3.70987e-05
-0.000147662
3.11031e-05
-0.000150474
-2.44863e-05
-0.00013003
2.48111e-06
-0.000131592
0.000108719
-0.000157561
0.000147223
-0.000146842
0.000174379
-0.000137894
0.000148332
-8.19965e-05
0.000164169
-7.40388e-05
0.000212795
-9.94812e-05
0.000229955
-6.12616e-05
0.000197344
6.30588e-05
0.000229971
0.000148542
0.000217936
0.000262587
4.86227e-06
-6.59681e-05
9.16911e-06
-6.62405e-05
1.34885e-05
-7.03965e-05
1.37715e-05
-6.68863e-05
1.8182e-05
-7.63563e-05
2.43301e-05
-7.95614e-05
2.76613e-05
-8.306e-05
3.58384e-05
-0.000147976
5.76783e-05
-0.000154024
6.20401e-05
-0.000152024
5.17215e-05
-0.000140155
3.97045e-05
-0.000118013
6.87082e-05
-0.000160596
0.000127952
-0.000216804
0.00016579
-0.00018468
0.000115105
-8.72087e-05
0.000125146
-9.20373e-05
0.00017327
-0.000122163
0.000204943
-0.000131154
0.000227268
-8.35878e-05
0.000197646
9.26823e-05
0.00016049
0.000185697
0.000215358
0.000163068
2.60496e-06
-6.85731e-05
6.01894e-06
-6.96545e-05
5.34752e-06
-6.97251e-05
9.57495e-06
-7.11137e-05
8.41288e-06
-7.51943e-05
4.02612e-05
-0.00011141
2.9209e-05
-7.20079e-05
3.35394e-05
-0.000152306
3.64687e-05
-0.000156953
4.77296e-05
-0.000163285
8.11382e-05
-0.000173564
0.000115383
-0.000152258
0.000131701
-0.000176914
0.000107192
-0.000192295
0.000109631
-0.000187119
0.000120964
-9.85412e-05
0.000158059
-0.000129132
0.000169081
-0.000133185
0.00016344
-0.000125513
0.000166419
-8.65681e-05
0.000116599
0.000142502
7.66694e-05
0.000225627
0.000228969
6.30582e-05
2.47376e-06
-7.10468e-05
4.27222e-06
-7.14529e-05
4.20664e-06
-6.96595e-05
5.19033e-06
-7.20974e-05
4.27009e-05
-0.000112705
1.57988e-05
-8.45077e-05
1.75204e-05
-7.37294e-05
2.62812e-05
-0.000161067
3.1645e-05
-0.000162317
4.03297e-05
-0.00017197
5.17087e-05
-0.000184943
0.000104324
-0.000204873
0.000130594
-0.000203185
0.000134463
-0.000196163
9.77382e-05
-0.000150395
0.000116111
-0.000116914
0.000176528
-0.000189549
0.000166992
-0.000123649
0.000139347
-9.78676e-05
8.45474e-05
-3.1768e-05
3.36063e-05
0.000193442
1.01196e-05
0.000249114
0.000238524
5.6452e-07
3.53897e-06
-7.45858e-05
6.90711e-06
-7.48211e-05
7.39335e-06
-7.01458e-05
7.87423e-06
-7.25783e-05
1.69715e-05
-0.000121802
1.45153e-05
-8.20515e-05
1.88027e-05
-7.80168e-05
2.38174e-05
-0.000166082
2.79776e-05
-0.000166477
4.91109e-05
-0.000193103
4.29146e-05
-0.000178747
1.33882e-05
-0.000175347
-2.46127e-06
-0.000187335
-3.79372e-06
-0.000194831
9.27027e-06
-0.000163459
4.00373e-06
-0.000111647
-3.20509e-05
-0.000153495
-4.22234e-05
-0.000113477
-3.60299e-05
-0.000104061
-9.30064e-05
2.52088e-05
-6.95862e-05
0.000170022
-3.42752e-05
0.000213803
0.000224783
-2.05343e-05
4.45593e-06
-7.90417e-05
8.24802e-06
-7.86132e-05
1.53038e-05
-7.72016e-05
2.87066e-05
-8.59811e-05
1.48263e-06
-9.45781e-05
7.03053e-06
-8.75994e-05
1.73895e-05
-8.83758e-05
2.31388e-05
-0.000171831
2.18865e-05
-0.000165225
2.87546e-05
-0.000199971
1.40763e-05
-0.000164068
-4.52099e-05
-0.000116061
-3.68562e-05
-0.000195689
-2.91273e-05
-0.000202559
-1.49454e-05
-0.000177641
-2.46452e-05
-0.000101948
-5.42135e-06
-0.000172718
-3.34193e-05
-8.54789e-05
-8.14242e-05
-5.60558e-05
-9.62472e-05
4.00321e-05
-7.37229e-05
0.000147498
-4.54215e-05
0.000185501
0.000204434
-2.50734e-05
4.31855e-06
-8.33603e-05
3.92084e-06
-7.82155e-05
9.85756e-06
-8.31383e-05
8.60893e-06
-8.47324e-05
7.88014e-06
-9.38493e-05
9.04932e-06
-8.87686e-05
1.07987e-05
-9.01252e-05
1.73624e-05
-0.000178394
-9.72377e-06
-0.000138139
2.77584e-06
-0.000212471
2.31933e-05
-0.000184486
-5.01228e-05
-4.27447e-05
-2.81266e-05
-0.000217685
-3.16279e-05
-0.000199058
-2.65214e-05
-0.000182748
-1.44133e-05
-0.000114056
-6.56793e-07
-0.000186475
-8.96397e-06
-7.71717e-05
-7.14008e-05
6.38052e-06
-7.06292e-05
3.92604e-05
-2.87417e-05
0.00010561
-2.46899e-05
0.000181449
0.000197135
-1.73902e-05
4.53264e-06
-8.78929e-05
-2.04556e-06
-7.16373e-05
-1.03887e-05
-7.47951e-05
8.42154e-06
-0.000103543
-5.76019e-06
-7.96676e-05
1.34833e-05
-0.000108012
4.9374e-06
-8.15793e-05
-1.17599e-05
-0.000161697
-3.9428e-05
-0.000110471
-1.34203e-05
-0.000238479
1.4231e-05
-0.000212137
-4.1255e-05
1.27413e-05
-1.00523e-05
-0.000248888
4.9424e-06
-0.000214053
-1.6727e-06
-0.000176133
-2.57686e-06
-0.000113152
-4.80656e-05
-0.000140986
-4.80724e-05
-7.71649e-05
-3.15034e-05
-1.01885e-05
-1.67275e-05
2.44843e-05
-4.96273e-06
9.38452e-05
-1.38577e-05
0.000190344
0.00019984
-1.65629e-05
1.95348e-05
-0.000107428
1.2322e-05
-6.44244e-05
-7.85579e-07
-6.16876e-05
-5.91158e-06
-9.84167e-05
3.06536e-06
-8.86445e-05
7.41274e-07
-0.000105688
-1.29694e-05
-6.78685e-05
-9.07551e-05
-8.39116e-05
-8.42584e-06
-0.0001928
2.0084e-05
-0.000266988
9.41033e-06
-0.000201463
-1.74629e-06
2.3898e-05
-3.19588e-06
-0.000247438
1.25037e-05
-0.000229752
1.46416e-06
-0.000165093
-7.38034e-06
-0.000104307
-7.75589e-06
-0.000140611
1.41325e-05
-9.90532e-05
5.2035e-05
-4.80909e-05
5.8486e-05
1.80332e-05
1.60849e-05
0.000136246
-1.35015e-05
0.000219931
0.000215928
-2.9589e-05
2.76062e-05
-0.000135034
1.60581e-05
-5.28763e-05
8.6572e-06
-5.42867e-05
2.22439e-06
-9.19839e-05
-1.18732e-05
-7.45469e-05
-2.55854e-05
-9.19758e-05
-5.78296e-05
-3.56244e-05
-8.6552e-05
-5.51892e-05
-2.39942e-06
-0.000276952
1.29706e-05
-0.000282358
-1.86748e-05
-0.000169818
4.91794e-05
-4.39562e-05
-7.89338e-06
-0.000190365
-0.00010243
-0.000135216
-0.000128102
-0.000139421
-8.83417e-05
-0.000144068
-6.72578e-05
-0.000161695
7.9129e-06
-0.000174224
2.60779e-05
-6.62559e-05
4.76869e-06
3.93423e-05
-3.36887e-05
0.000174704
-3.39763e-05
0.000220218
0.000221383
-3.94316e-05
2.95531e-05
-0.000164587
2.29682e-05
-4.62914e-05
1.12538e-05
-4.25723e-05
8.29313e-06
-8.90232e-05
-1.8923e-06
-6.43615e-05
-4.14403e-05
-5.24278e-05
-3.91069e-05
-3.79577e-05
-5.88656e-05
-3.54305e-05
-9.3646e-06
-0.000326454
-2.16779e-05
-0.000270045
-2.31986e-05
-0.000168297
1.04562e-05
-7.7611e-05
-4.87996e-05
-0.00013111
-6.53348e-05
-0.00011868
-8.28056e-05
-0.000121951
-9.2971e-05
-0.000133902
-0.000105359
-0.000149306
-0.000125435
-0.000154147
-0.000110082
-8.16092e-05
-0.000124793
5.40529e-05
-0.000103576
0.000153487
-8.32124e-05
0.000199854
0.000197999
-5.98286e-05
-3.78437e-06
-0.000160803
6.1268e-05
-0.000111344
1.73294e-05
1.36626e-06
2.03172e-05
-9.2011e-05
-1.7498e-05
-2.65462e-05
-4.08417e-05
-2.90841e-05
-4.34092e-05
-3.53902e-05
4.04692e-05
-0.000119309
-8.20886e-06
-0.000277776
-8.79682e-05
-0.000190286
-4.01304e-05
-0.000216135
-1.94796e-05
-9.82617e-05
-6.5052e-05
-8.55372e-05
-7.35937e-05
-0.000110138
-9.07437e-05
-0.0001048
-0.000130553
-9.40926e-05
-0.000198784
-8.10757e-05
-0.00022725
-0.000125682
-0.000264908
-4.39506e-05
-0.000186384
-2.44718e-05
-0.000154925
0.000122029
-0.000118312
0.00016324
0.000156869
-7.71819e-05
0.000103753
-0.000264555
2.62803e-05
-3.38716e-05
5.24442e-06
2.24022e-05
4.00062e-05
-0.000126773
-1.67991e-05
3.02591e-05
-9.73403e-05
5.14571e-05
-3.14476e-05
-0.000101283
3.5108e-05
-0.000185864
-4.82888e-05
-0.000194379
-7.74274e-05
-0.000161147
-9.46561e-05
-0.000198906
-7.25127e-05
-0.000120405
-7.34448e-05
-8.4605e-05
-8.43529e-05
-9.92301e-05
-0.0001029
-8.62529e-05
-0.000134891
-6.21014e-05
-0.000178463
-3.75043e-05
-0.000252845
-5.12996e-05
-0.000186946
-0.00010985
-0.000193795
-1.76228e-05
-0.000153997
8.22305e-05
-0.000116757
0.000126001
0.000123714
-8.36027e-05
-8.80646e-05
-0.000176491
-6.67091e-05
-5.52271e-05
7.72654e-06
-5.20334e-05
5.05591e-05
-0.000169605
7.48016e-06
7.3338e-05
8.57457e-06
5.03626e-05
-5.36858e-05
-3.90225e-05
-4.57309e-05
-0.000193819
-6.67935e-05
-0.000173316
-8.03389e-05
-0.000147602
-5.92782e-05
-0.000219967
-5.80301e-05
-0.000121653
-7.25194e-05
-7.01157e-05
-9.20562e-05
-7.96933e-05
-0.000102271
-7.60382e-05
-9.65792e-05
-6.77932e-05
-0.000113419
-2.0665e-05
-0.000129656
-3.50624e-05
-0.000222599
-1.69078e-05
-0.000238893
-1.32872e-06
-0.000159125
2.46238e-06
-0.000114972
8.18477e-05
9.60126e-05
-8.7271e-05
-3.34562e-05
-0.000143034
-3.73175e-05
-5.13658e-05
-6.11279e-05
-2.8223e-05
-9.63536e-05
-0.00013438
-2.88429e-05
5.82725e-06
3.26854e-05
-1.11656e-05
4.77769e-05
-5.4114e-05
-6.30045e-07
-0.000145413
-4.08908e-05
-0.000133055
-5.61683e-05
-0.000132324
-7.38465e-05
-0.000202289
-0.000131969
-6.35315e-05
-9.32211e-05
-0.000108863
-8.44757e-05
-8.84386e-05
-0.000121576
-3.89375e-05
-0.000146282
-4.30875e-05
-0.00010688
-6.00671e-05
-0.000127883
-1.40596e-05
-0.000130632
-1.41586e-05
-0.000132561
6.00038e-07
-0.000167899
3.78e-05
-0.000155401
6.93502e-05
7.16247e-05
-0.000131014
-1.98705e-05
-0.000123164
-1.81174e-05
-5.31188e-05
-1.26101e-05
-3.37303e-05
-4.76228e-05
-9.93669e-05
-1.30978e-05
-2.86977e-05
2.41849e-05
-4.84482e-05
2.19485e-05
-5.18776e-05
-2.17845e-05
-0.000101679
-4.15491e-05
-0.000113291
-4.82596e-05
-0.000125614
-0.000136448
-0.000114101
-0.000100296
-9.9684e-05
-0.000147212
-6.19471e-05
-0.000144376
-9.12752e-05
-0.000138732
-4.45812e-05
-0.00013077
-5.10493e-05
-0.000155292
-3.55456e-05
-0.000113932
-5.54198e-05
-0.000109547
-1.85433e-05
-0.000109086
1.38811e-07
-0.000103149
3.18633e-05
-8.52396e-05
5.14405e-05
5.90942e-05
-7.2709e-05
-2.36839e-05
-9.948e-05
-2.14211e-05
-5.53817e-05
-3.20575e-06
-5.19456e-05
-3.57988e-05
-6.67738e-05
-1.6803e-05
-4.76934e-05
1.87649e-05
-8.40161e-05
3.08088e-05
-6.39215e-05
6.53168e-06
-7.74023e-05
-1.27681e-05
-9.3991e-05
-3.37162e-05
-0.000104666
-5.07615e-05
-9.70555e-05
-6.5366e-05
-8.50795e-05
-5.98807e-05
-6.74325e-05
-9.82998e-05
-5.28561e-05
-7.49302e-05
-6.79509e-05
-7.87865e-05
-4.71932e-05
-7.50863e-05
-3.92458e-05
-9.71195e-05
-3.33866e-05
-9.98112e-05
-1.58517e-05
-9.65567e-05
-3.11564e-06
-8.95437e-05
2.48503e-05
-7.75792e-05
3.94761e-05
5.09379e-05
-6.94229e-05
-2.21912e-05
-7.72888e-05
-1.47157e-05
-6.28571e-05
-1.21765e-05
-5.44848e-05
1.62859e-05
-9.52362e-05
2.41365e-05
-5.5544e-05
3.94318e-06
-6.38228e-05
2.30168e-06
-6.228e-05
1.20326e-05
-8.71332e-05
-1.36972e-06
-8.05885e-05
-1.83734e-05
-8.76619e-05
-3.44271e-05
-8.10017e-05
-4.97463e-05
-6.97602e-05
-6.66006e-05
-5.05782e-05
-7.09914e-05
-4.84653e-05
-5.81091e-05
-8.08333e-05
-7.15951e-05
-3.37073e-05
-7.96243e-05
-3.12167e-05
-8.62454e-05
-2.67655e-05
-8.42349e-05
-1.78621e-05
-8.48527e-05
-2.49782e-06
-7.96583e-05
1.96559e-05
-7.40058e-05
3.38237e-05
4.50385e-05
-6.81064e-05
-2.27986e-05
-5.44902e-05
-8.47901e-06
-7.71767e-05
5.99118e-06
-6.8955e-05
-6.59208e-06
-8.26529e-05
1.17728e-05
-7.39089e-05
8.13054e-06
-6.01805e-05
1.09278e-06
-5.52422e-05
-1.58342e-05
-7.02061e-05
-2.8907e-05
-6.75156e-05
-4.73101e-05
-6.92587e-05
-5.92147e-05
-6.9097e-05
-6.65801e-05
-6.23948e-05
-6.66146e-05
-5.05437e-05
-6.77309e-05
-4.7349e-05
-0.000102849
-4.5715e-05
-6.5051e-05
-7.15056e-05
-6.77745e-05
-2.84932e-05
-7.26094e-05
-2.19306e-05
-7.56502e-05
-1.48213e-05
-7.50256e-05
-3.12238e-06
-7.16217e-05
1.6252e-05
-6.81792e-05
3.03813e-05
4.17004e-05
-6.4841e-05
1.10604e-05
-6.55507e-05
8.95212e-07
-6.70115e-05
-3.84819e-06
-6.42117e-05
-1.40252e-05
-7.24759e-05
-2.0268e-05
-6.7666e-05
-9.74627e-06
-7.07021e-05
6.45734e-06
-7.14457e-05
-5.62081e-06
-5.81279e-05
-2.11167e-05
-5.20196e-05
-3.4814e-05
-5.55613e-05
-4.77711e-05
-5.61398e-05
-5.47535e-05
-5.54123e-05
-5.13227e-05
-5.39744e-05
-4.64176e-05
-5.22541e-05
-3.96844e-05
-5.24482e-05
-6.17828e-05
-4.94072e-05
-6.5239e-05
-2.50369e-05
-6.03175e-05
-2.68521e-05
-6.52085e-05
-9.93021e-06
-6.59787e-05
-2.35216e-06
-6.23351e-05
1.26085e-05
-5.67673e-05
2.48135e-05
3.37243e-05
-4.87912e-05
-3.54755e-06
-6.20031e-05
-4.85243e-06
-6.57066e-05
-2.87651e-06
-6.61876e-05
-8.5673e-06
-6.67851e-05
-1.12317e-05
-6.50016e-05
-1.89132e-05
-6.30206e-05
-2.63358e-05
-6.40231e-05
-2.02908e-05
-6.41728e-05
-3.29192e-05
-3.93911e-05
-4.89646e-05
-3.95158e-05
-4.51413e-05
-5.9963e-05
-4.2073e-05
-5.84805e-05
-3.72772e-05
-5.87702e-05
-4.69648e-05
-4.25664e-05
-5.95731e-05
-3.98399e-05
-6.88511e-05
-4.01291e-05
-4.67741e-05
-4.71139e-05
-5.84319e-05
-1.51943e-05
-5.93381e-05
-9.024e-06
-5.87767e-05
-2.91342e-06
-5.68375e-05
1.06694e-05
-5.32205e-05
2.11966e-05
2.77574e-05
-4.72536e-05
-3.46177e-07
-6.16569e-05
-3.38285e-06
-6.26699e-05
-6.29517e-06
-6.32753e-05
-1.03143e-05
-6.27659e-05
-1.30987e-05
-6.22173e-05
-1.47422e-05
-6.1377e-05
-1.74734e-05
-6.12918e-05
-2.18472e-05
-5.97989e-05
-2.78401e-05
-3.33982e-05
-3.46306e-05
-3.27252e-05
-4.29209e-05
-5.16726e-05
-5.09074e-05
-5.04941e-05
-5.73916e-05
-5.22859e-05
-4.82937e-05
-5.16643e-05
-5.81527e-05
-2.99808e-05
-5.07282e-05
-4.75535e-05
-7.02663e-05
-2.75758e-05
-4.98628e-05
-3.55977e-05
-5.35673e-05
-5.31948e-06
-5.25486e-05
-3.93206e-06
-4.95314e-05
7.65222e-06
-4.45853e-05
1.62505e-05
2.32714e-05
-4.00992e-05
-2.0506e-06
-5.96062e-05
-4.09959e-06
-6.06209e-05
-5.96336e-06
-6.14115e-05
-9.11805e-06
-5.96112e-05
-1.23765e-05
-5.89588e-05
-1.71243e-05
-5.66292e-05
-2.20255e-05
-5.63906e-05
-2.46089e-05
-5.72154e-05
-2.87658e-05
-2.92412e-05
-3.29084e-05
-2.85825e-05
-3.79851e-05
-4.65959e-05
-4.52651e-05
-4.3214e-05
-4.97458e-05
-4.78051e-05
-5.18093e-05
-4.96007e-05
-5.48474e-05
-2.69427e-05
-5.45964e-05
-4.78045e-05
-5.7088e-05
-2.50841e-05
-6.3762e-05
-2.89237e-05
-4.81246e-05
-2.09568e-05
-4.87603e-05
-3.29629e-06
-4.51806e-05
4.07253e-06
-4.34175e-05
1.44875e-05
2.19196e-05
-4.20657e-05
-8.54505e-07
-5.87517e-05
-2.09646e-06
-5.93789e-05
-4.95718e-06
-5.85508e-05
-6.86951e-06
-5.76989e-05
-9.13079e-06
-5.66975e-05
-1.33884e-05
-5.23716e-05
-1.81427e-05
-5.16363e-05
-2.01981e-05
-5.516e-05
-2.06551e-05
-2.87842e-05
-2.04785e-05
-2.87591e-05
-3.85336e-05
-2.85408e-05
-3.13871e-05
-5.03605e-05
-3.25453e-05
-4.66468e-05
-4.50342e-05
-3.71118e-05
-2.63806e-05
-4.55962e-05
-4.95147e-05
-2.46703e-05
-3.85532e-05
-3.60456e-05
-5.13528e-05
-1.6124e-05
-4.01349e-05
-3.21746e-05
-4.33935e-05
-3.76843e-08
-4.14657e-05
2.14482e-06
-3.89139e-05
1.19357e-05
1.97284e-05
-3.67227e-05
-1.11383e-06
-5.76379e-05
-2.33117e-06
-5.81616e-05
-5.23445e-06
-5.56475e-05
-7.23601e-06
-5.56973e-05
-9.90716e-06
-5.40263e-05
-1.4138e-05
-4.81408e-05
-1.87665e-05
-4.70077e-05
-2.15826e-05
-5.23438e-05
-2.37668e-05
-2.66e-05
-2.42666e-05
-2.82593e-05
-2.74528e-05
-2.53545e-05
-2.31496e-05
-5.46636e-05
-2.66193e-05
-4.31771e-05
-2.75184e-05
-3.62127e-05
-3.00994e-05
-4.3015e-05
-4.05758e-05
-1.41939e-05
-4.06899e-05
-3.59314e-05
-4.19467e-05
-1.48671e-05
-5.13812e-05
-2.27401e-05
-3.8842e-05
-1.25769e-05
-3.8784e-05
2.08691e-06
-3.48291e-05
7.98082e-06
1.71356e-05
-3.22363e-05
-1.26402e-06
-5.63739e-05
-2.57705e-06
-5.68486e-05
-3.16423e-06
-5.50603e-05
-2.09845e-06
-5.67631e-05
-8.89076e-08
-5.60358e-05
-1.40002e-05
-3.42295e-05
-2.72329e-05
-3.3775e-05
-2.43426e-05
-5.52341e-05
-2.12918e-05
-2.96508e-05
-2.09279e-05
-2.86232e-05
-1.72894e-05
-2.89929e-05
-2.22832e-05
-4.96698e-05
-2.65835e-05
-3.88767e-05
-2.6282e-05
-3.65142e-05
-4.13067e-05
-2.79903e-05
-2.41988e-05
-3.13018e-05
-3.47328e-05
-2.53973e-05
-3.48033e-05
-1.47966e-05
-4.05342e-05
-1.70092e-05
-3.08172e-05
-2.22939e-05
-3.46291e-05
5.89886e-06
-3.24524e-05
5.80409e-06
1.57461e-05
-3.10629e-05
-1.98789e-06
-5.4386e-05
-4.05304e-06
-5.47834e-05
-5.77802e-06
-5.33353e-05
-7.96731e-06
-5.45738e-05
-1.03392e-05
-5.36639e-05
-1.16626e-05
-3.29061e-05
-1.37653e-05
-3.16722e-05
-1.51591e-05
-5.38404e-05
-1.2391e-05
-3.24189e-05
-1.24454e-05
-2.85687e-05
-1.20831e-05
-2.93551e-05
-1.66015e-05
-4.51514e-05
-2.16954e-05
-3.37827e-05
-2.34828e-05
-3.47268e-05
-2.38947e-05
-2.75783e-05
-2.3041e-05
-3.21554e-05
-3.60312e-05
-1.24072e-05
-2.85099e-05
-2.23178e-05
-3.44788e-05
-1.10403e-05
-4.26376e-05
-1.4135e-05
-3.0867e-05
-5.87176e-06
-2.94053e-05
4.34245e-06
1.28595e-05
-2.65187e-05
-1.43814e-06
-5.29479e-05
-2.88733e-06
-5.33342e-05
-4.71226e-06
-5.15104e-05
-5.77261e-06
-5.35135e-05
-7.83153e-06
-5.1605e-05
-9.51724e-06
-3.12203e-05
-1.35014e-05
-2.7688e-05
-2.38129e-05
-4.35289e-05
-1.65883e-05
-3.96434e-05
-7.01025e-06
-3.81468e-05
-1.51374e-05
-2.12279e-05
-2.31049e-05
-3.71839e-05
-2.10232e-05
-3.58644e-05
-2.36739e-05
-3.20761e-05
-2.28633e-05
-2.83889e-05
-3.45138e-05
-2.05049e-05
-2.70415e-05
-1.98795e-05
-2.86658e-05
-2.06935e-05
-2.90831e-05
-1.0623e-05
-3.19729e-05
-1.12452e-05
-2.35823e-05
-1.42624e-05
-2.58986e-05
6.65878e-06
1.17079e-05
-2.4747e-05
-8.9889e-07
-5.2049e-05
-2.02525e-06
-5.22079e-05
-3.55188e-06
-4.99838e-05
-6.09458e-06
-5.09708e-05
-1.42882e-05
-4.34114e-05
-2.76604e-06
-4.27425e-05
-7.01962e-06
-2.34344e-05
-1.0478e-05
-4.00705e-05
-1.32403e-05
-3.68811e-05
-9.68556e-06
-4.17016e-05
-9.55705e-06
-2.13564e-05
-2.50283e-05
-2.17126e-05
-1.95253e-05
-4.13675e-05
-1.9989e-05
-3.16123e-05
-2.00397e-05
-2.83382e-05
-2.0098e-05
-2.04465e-05
-1.8693e-05
-2.12844e-05
-2.49242e-05
-1.44624e-05
-2.04503e-05
-1.50968e-05
-2.51128e-05
-6.58266e-06
-3.36667e-05
-5.70846e-06
-2.32402e-05
-3.76777e-06
1.25497e-05
-2.4082e-05
-9.21047e-07
-5.11279e-05
-2.09205e-06
-5.10369e-05
-2.10294e-06
-4.99729e-05
-4.435e-06
-4.86387e-05
-5.80989e-06
-4.20365e-05
-5.39733e-06
-4.3155e-05
-4.5737e-06
-2.42581e-05
-1.79245e-05
-2.67197e-05
-1.08276e-05
-4.3978e-05
-9.85804e-06
-4.26711e-05
-8.73282e-06
-2.24816e-05
-9.86995e-06
-2.05755e-05
-1.42526e-05
-3.69849e-05
-1.6784e-05
-2.90809e-05
-1.84929e-05
-2.66293e-05
-1.75544e-05
-2.1385e-05
-2.41355e-05
-1.47033e-05
-2.33636e-05
-1.52343e-05
-2.51828e-05
-1.32776e-05
-2.62429e-05
-5.52256e-06
-2.68294e-05
-5.12195e-06
-2.93598e-05
-1.23738e-06
4.05118e-06
-2.08612e-05
-5.74189e-07
-5.05537e-05
-1.01509e-06
-5.0596e-05
-9.90952e-08
-5.08889e-05
-1.42532e-07
-4.85953e-05
-1.22235e-05
-2.99556e-05
-7.32081e-06
-4.80577e-05
-6.16374e-06
-2.54152e-05
-8.43921e-06
-2.44442e-05
-6.73336e-06
-4.56839e-05
-8.78069e-06
-4.06238e-05
-8.93081e-06
-2.23315e-05
-9.88941e-06
-1.96169e-05
-1.2926e-05
-3.39483e-05
-1.4358e-05
-2.76489e-05
-1.49137e-05
-2.60735e-05
-1.51536e-05
-2.11451e-05
-1.49088e-05
-1.49481e-05
-1.26568e-05
-1.74863e-05
-1.74423e-05
-8.49208e-06
-1.83665e-05
-4.59837e-06
-1.98944e-05
-3.594e-06
-2.17209e-05
5.8915e-07
1.08646e-06
-1.87562e-05
-9.21499e-07
-4.96322e-05
-1.81615e-06
-4.97014e-05
-2.89646e-06
-4.98086e-05
-3.37933e-06
-4.81124e-05
-5.09662e-06
-2.82383e-05
-3.94579e-06
-4.92086e-05
-4.98956e-06
-2.43714e-05
-6.33451e-06
-2.30993e-05