/*--------------------------------*- C++ -*----------------------------------*\
| =========                 |                                                 |
| \\      /  F ield         | foam-extend: Open Source CFD                    |
|  \\    /   O peration     | Version:     4.1                                |
|   \\  /    A nd           | Web:         http://www.foam-extend.org         |
|    \\/     M anipulation  |                                                 |
\*---------------------------------------------------------------------------*/
FoamFile
{
    version     2.0;
    format      ascii;
    class       volScalarField;
    location    "0.15";
    object      psi;
}
// * * * * * * * * * * * * * * * * * * * * * * * * * * * * * * * * * * * * * //

dimensions      [1 -1 -2 0 0 0 0];

internalField   nonuniform List<scalar> 
2268
(
-8.73116e-11
3.63802e-12
-5.27507e-11
-8.09451e-11
-6.91216e-11
-1.86441e-10
-1.9105e-08
-2.53187e-06
-0.000221206
-0.00464096
-0.0397757
-19.6207
-110.931
-90.3624
-79.6006
-240.351
-1488.37
-2615.5
1928.95
2689.11
1865.81
1022.98
317.593
-4.09272e-11
3.63794e-12
-7.54881e-11
-6.73027e-11
-2.00087e-11
-9.09447e-11
-1.50416e-08
-1.73559e-06
-0.000170726
-0.00627254
-0.103959
-175.673
-1084.91
-1091.59
-548.611
-486.81
-1953.18
-282.419
2747.42
1962.86
1682.37
1277.42
317.357
-3.63798e-11
5.91174e-11
-6.45741e-11
-4.54721e-12
-6.63932e-11
-1.2005e-10
-9.5084e-09
-1.17811e-06
-0.000128211
-0.0098534
-0.42618
-733.562
-2808.45
-2848.64
-1498.12
-903.558
-2460.94
287.282
2790.03
2317.62
1382.01
1204.25
588.388
-5.45698e-11
1.00044e-11
-8.91306e-11
-1.05502e-10
-7.45785e-11
-1.11866e-10
-7.00003e-09
-1.12224e-06
-0.000116024
-0.00606106
-0.664676
-1298.12
1875.95
1515.31
-2661.5
-1731.36
-2702.13
-1182.67
2258.02
1889.16
265.174
921.935
547.369
-1.63709e-11
2.27374e-11
-4.09272e-11
-1.15506e-10
-1.05501e-10
-1.2187e-10
-8.66806e-09
-1.10442e-06
-9.76387e-05
-0.00484062
-0.681063
-1372.21
2834.8
2784.66
-2527.93
-2508.49
-2778.61
-2271.66
2489.89
1156.48
96.237
622.053
502.037
-2.00088e-11
2.00089e-11
-5.91172e-11
-6.2755e-11
-8.54926e-11
-8.91289e-11
-5.1075e-09
-7.08951e-07
-5.40395e-05
-0.00389565
-1.0425
-1285.18
2846.46
2850.42
-2127.2
-2699.89
-2689.12
1757.26
1572.83
381.592
63.9245
358.047
454.789
-8.54928e-11
6.27554e-11
-3.00133e-11
-7.27597e-11
-3.09227e-11
-7.45765e-11
-6.84645e-09
-7.51738e-07
-5.46355e-05
-0.00500366
-1.81816
-1576.73
2850.26
2659.66
2816.31
1900.45
2160.13
1542.8
856.48
352.807
67.7589
208.217
409.385
1.00046e-11
3.63799e-12
-1.45519e-11
-2.00088e-11
-4.27463e-11
-7.73056e-11
-4.98663e-09
-4.33892e-07
-6.37516e-05
-0.0106667
-3.18756
-1278.98
2805.35
2857.56
2796.13
2664.07
2678.45
2451.33
1857.44
721.316
126.609
141.77
364.46
-1.23223e-17
-3.27418e-11
1.63709e-11
1.00044e-11
-5.63888e-11
3.81988e-11
2.63753e-11
-1.6371e-11
-3.63802e-12
1.81892e-12
8.1854e-12
-2.0009e-11
-2.0009e-11
-6.36658e-12
-3.63801e-12
1.45519e-11
3.81987e-11
5.27508e-11
-3.84458e-17
1.4552e-11
-2.63758e-11
5.27509e-11
2.00089e-11
4.54766e-12
5.09318e-11
8.27643e-11
2.1828e-11
2.81945e-11
5.27509e-11
5.09319e-11
7.45788e-11
5.72983e-11
7.91263e-11
1.6371e-11
5.45699e-11
8.54928e-11
4.5474e-12
1.819e-11
-1.00049e-11
2.51009e-10
-3.6382e-11
-2.0009e-11
-7.91263e-11
-6.36648e-12
-3.638e-11
-6.27553e-11
-5.91174e-11
-1.00044e-11
-1.6371e-11
-3.63801e-12
-3.638e-12
-2.0009e-11
-2.27373e-11
-4.00179e-11
-3.638e-11
-1.00045e-11
-3.00135e-11
2.24629e-10
9.0756e-09
1.40422e-09
5.09297e-11
-2.63753e-11
-3.63798e-11
-3.63791e-12
-1.36423e-11
4.54764e-12
-6.27553e-11
-1.00044e-11
-5.91173e-11
-4.27463e-11
-1.36424e-11
-7.54882e-11
-3.00133e-11
1.26158e-16
3.81989e-11
1.18235e-11
1.05835e-08
2.01392e-07
2.98273e-08
1.36876e-09
1.45506e-11
-5.63888e-11
-1.36424e-11
-5.91173e-11
-3.27419e-11
3.63814e-12
-6.36646e-12
-1.36423e-11
-7.27597e-11
-3.00134e-11
-4.00177e-11
-4.00178e-11
-5.63888e-11
-6.36655e-12
3.6379e-12
1.52182e-06
3.09918e-06
4.16169e-07
2.00086e-08
7.48501e-10
-4.70615e-16
-3.27419e-11
-4.27463e-11
-3.00134e-11
-4.00179e-11
-3.63789e-12
-5.27508e-11
-4.63842e-11
-1.63709e-11
-2.63753e-11
-1.63709e-11
-3.00133e-11
2.00089e-11
5.27507e-11
9.73145e-05
3.6635e-05
3.56418e-06
1.74773e-07
7.28864e-09
2.65571e-10
1.63709e-11
1.00045e-11
3.638e-12
1.36425e-11
-4.91129e-11
3.63801e-12
-3.00134e-11
-2.00089e-11
-2.27375e-11
2.81944e-11
-2.00089e-11
4.27463e-11
6.91216e-11
0.00166141
0.000316654
2.25493e-05
7.60564e-07
1.931e-08
4.28363e-10
4.91126e-11
1.63709e-11
2.00089e-11
-3.18847e-17
-6.36642e-12
4.91128e-11
4.54751e-12
-6.36646e-12
5.45698e-11
7.27597e-11
1.18234e-11
4.63842e-11
6.73027e-11
-6.36644e-12
-9.7316e-11
-3.81988e-11
6.36653e-12
-3.63794e-12
6.36807e-12
-4.76547e-09
-9.16275e-07
-0.000145876
-0.0318132
-9.82578
-168.031
-2703.16
-2851.78
-2688.03
-1807
-1137.95
521.176
2830.81
1166.25
253.183
107.737
294.478
-4.54733e-12
-7.45785e-11
-1.2551e-10
-1.21872e-10
-1.05501e-10
-2.75573e-10
-1.0344e-08
-1.90212e-06
-0.000304384
-0.118276
-25.7909
-541.62
-2524.88
-2487.01
-893.081
1910.15
2828.73
2342.42
818.568
154.337
51.4935
34.3535
135.528
-3.91988e-10
-1.68255e-10
-1.13687e-10
-2.00998e-10
-1.66436e-10
-3.15411e-09
-4.47249e-09
-1.27267e-06
-0.000407513
-0.158241
-17.2918
-349.611
-1483.25
-2854.77
342.521
2857.71
1948.37
1040.49
504.076
218.605
82.0999
19.7861
53.8378
-1.34049e-08
-4.39646e-09
-9.90432e-10
-2.36104e-09
-2.53018e-09
-5.65222e-08
-3.2852e-08
-8.10226e-06
-0.00104453
-0.199615
-14.0189
-667.599
-1685.31
-2857.53
215.687
2852.33
2163.48
1244.66
581.666
214.047
63.8201
11.5308
20.754
-3.8393e-07
-1.14203e-07
-2.18541e-08
-3.37694e-08
-6.65617e-08
-8.07202e-07
-4.3354e-07
-8.44321e-05
-0.00456969
-0.434184
-17.3376
-1844
-1743.69
-1133.35
1145.08
2857.61
2189.9
1347.16
722.037
368.265
155.382
33.2546
21.2791
-8.48705e-06
-2.28958e-06
-3.88377e-07
-5.59905e-07
-1.16188e-06
-1.34337e-05
-6.02731e-06
-0.00082489
-0.0339777
-1.03012
-50.7594
-2705.69
2541.15
2717.11
2854.3
2424.88
1400.82
563.159
201.962
59.675
34.6701
11.4101
15.6208
-0.000160396
-4.04674e-05
-6.06873e-06
-8.67812e-06
-1.74036e-05
-0.000189196
-7.5483e-05
-0.00792918
-0.302895
-4.73888
-68.4609
-1912.14
-2094.6
-375.19
2086.15
2799.51
1865.18
930.144
393.27
126.594
34.7162
5.3165
10.1197
-0.00262826
-0.000626819
-8.29704e-05
-0.000123034
-0.000228779
-0.00227793
-0.000832162
-0.0717863
-2.50905
-31.9967
-114.384
-1080.42
-2506.17
-2554.1
189.161
2790.74
2172.44
1127.01
455.259
130.894
28.64
3.43783
4.84411
-0.0384545
-0.00871601
-0.00106997
-0.00149092
-0.00278147
-0.0180092
-0.00911659
-0.609924
-18.2866
-201.714
-339.973
-982.276
-2636.55
-2142.27
390.534
2744.5
1826.32
920.105
397.551
125.629
20.8431
1.90284
1.72789
-0.500862
-0.109292
-0.0129119
-0.015935
-0.0222741
-0.176205
-0.0952422
-4.56639
-113.928
-992.436
-1128.39
-2478.23
-78.2075
2768.01
2702.39
1568.91
318.198
41.3738
10.7056
20.3587
7.02416
0.732858
0.474029
-5.68018
-1.18519
-0.139021
-0.150278
-0.143561
-1.56617
-0.846814
-31.1777
-584.19
-2669.9
-2605.68
-2720.56
2637.8
2237.61
1284.79
508.253
212.357
33.4083
2.57725
4.62498
1.7184
0.220981
0.104252
-54.5159
-10.8687
-1.218
-1.06563
-1.02454
-11.2102
-5.98536
-189.537
-2109.21
-530.235
-1297.52
-2550.76
2728.86
1977.99
799.03
595.26
279.351
131.287
8.46265
1.03942
0.393588
0.0646806
0.0202692
-421.527
-87.362
-9.08248
-6.54713
-6.95167
-68.7635
-36.2997
-935.412
-2024.35
2732.15
2367.93
-2659.96
2652.22
2016.84
519.401
163.814
64.1775
133.294
25.0796
2.35344
0.343444
0.047981
0.00614171
-2081.11
-620.302
-67.7007
-29.7113
-41.4446
-285.019
-217.142
-2537.84
681.549
2781.55
2857.15
-1884.5
2785.73
1909.82
403.27
36.0146
4.94956
43.2165
185.919
182.156
89.2406
9.10807
0.201644
-1315.89
-2300.63
-374.591
-119.105
-212.042
-941.343
-949.534
-2854.01
1664.85
2605.05
2691.49
-2035.01
2530.49
720.174
69.944
3.90379
2.04295
8.6141
29.2833
122.99
77.3899
8.53324
0.244014
2850.25
-2224.93
-1298.17
-427.126
-744.393
-2141.84
-1893.21
-2801.82
2729.46
2044.94
1139.34
2022.62
1148.95
73.9372
6.36256
1.15309
2.32234
10.6625
27.5193
44.6883
41.8509
4.504
0.147388
2066.57
1338.9
-2715.31
-1383.6
-2228.41
-2664.38
-2770.57
-2459.66
2506.7
585.549
214.136
1265.66
86.1295
12.0539
1.89193
0.344679
0.895244
2.83456
7.9501
11.2135
9.77203
1.15284
0.0358035
1587.8
2837.31
-2684.7
-2838.41
-2605.25
680.022
-1278.01
2458.35
1568.82
100.279
39.2425
155.86
11.3393
4.03136
1.39903
0.110616
0.0531621
0.138291
0.305317
0.831084
2.07437
0.226393
0.00604762
1828.07
1298.69
-1649.77
2496.42
539.704
1901.65
2795.56
1566.17
237.862
20.9954
3.70163
11.254
1.86662
1.62824
1.3278
0.128762
0.00581719
0.0071517
0.0331837
0.109812
0.268917
0.0312085
0.000749391
186.233
1518.59
2759.65
1592.82
1787.32
181.266
1228.11
790.999
113.023
8.80173
0.344552
0.182657
0.0817488
0.108921
0.112462
0.0141744
0.000551643
0.000490609
0.00157155
0.00229636
0.00274698
0.00317391
5.77072e-05
74.6013
329.102
1330.11
556.395
103.645
45.8294
116.216
199.409
42.0999
4.06594
0.17807
0.0144269
0.00955386
0.013986
0.01331
0.000494062
1.80639e-05
2.15935e-05
7.32814e-05
0.00014117
0.000231989
0.000268175
4.03635e-06
20.3378
15.334
94.2452
9.07525
3.30462
6.95465
20.2128
5.08764
13.1521
1.24523
0.180198
0.00803733
9.92551e-05
5.46132e-05
5.35531e-05
4.77931e-06
1.45274e-06
3.24648e-07
1.95564e-06
5.5655e-06
1.37031e-05
1.49877e-05
2.20064e-07
6.13165
0.781909
0.205718
0.0187102
0.128141
0.958808
2.45924
0.080896
1.41877
0.207094
0.0385671
0.00556788
6.35986e-06
1.0095e-07
9.91613e-09
3.44916e-09
2.02591e-09
6.93025e-09
3.4864e-08
1.58392e-07
5.71432e-07
5.89631e-07
9.7168e-09
1.1211
0.152923
0.0140209
0.00153068
0.00212963
0.0347329
0.166216
0.0270928
0.037171
0.000381563
8.69424e-06
1.04479e-06
6.01863e-08
5.84756e-10
9.91318e-11
7.7306e-11
9.09489e-11
1.13685e-10
5.90251e-10
3.86257e-09
1.77077e-08
1.88418e-08
3.42871e-10
0.0426585
0.00857956
0.000352263
3.51717e-05
3.4725e-05
0.000273753
0.00180185
6.38434e-05
6.15896e-06
1.14121e-07
2.8439e-08
3.03223e-08
4.97466e-10
6.63928e-11
7.45785e-11
9.09495e-11
6.73026e-11
5.09316e-11
9.73158e-11
1.40061e-10
4.62928e-10
5.04764e-10
5.09315e-11
0.000433127
5.26704e-05
6.99482e-06
1.03349e-06
1.36877e-07
1.07277e-07
3.77203e-07
4.63053e-09
5.92914e-10
1.10014e-10
1.11859e-10
1.72795e-10
6.0936e-11
9.27685e-11
1.01863e-10
5.72981e-11
1.0732e-10
1.13687e-10
8.91305e-11
1.00954e-10
6.91215e-11
3.27417e-11
5.63887e-11
3.80337e-06
9.08689e-07
1.30934e-07
2.10408e-08
1.85168e-09
2.35526e-10
6.71866e-11
3.09214e-11
6.6393e-11
6.09361e-11
2.18278e-11
7.27596e-11
8.73115e-11
7.27596e-11
6.45741e-11
5.91171e-11
6.91216e-11
6.45741e-11
7.45786e-11
8.91305e-11
3.81988e-11
-3.00134e-11
4.54746e-12
2.66252e-08
1.12165e-08
1.93536e-09
3.62882e-10
7.91254e-11
5.27506e-11
6.27551e-11
6.73026e-11
1.03682e-10
6.63931e-11
8.73115e-11
8.2764e-11
6.63931e-11
4.00177e-11
4.91127e-11
1.11868e-10
5.63886e-11
6.91216e-11
6.91216e-11
9.7316e-11
3.81988e-11
-1.00045e-11
3.81988e-11
2.68293e-10
1.5643e-10
1.09139e-10
6.0936e-11
8.54925e-11
7.09406e-11
8.36735e-11
8.36735e-11
7.45785e-11
9.7316e-11
8.73115e-11
5.72981e-11
7.73071e-11
8.54925e-11
9.09495e-11
1.17325e-10
6.63931e-11
8.36735e-11
8.54925e-11
7.54881e-11
4.63842e-11
-2.40525e-17
3.63798e-11
9.36779e-11
3.09227e-11
1.09139e-10
8.54925e-11
9.27685e-11
7.9126e-11
9.5497e-11
5.72981e-11
8.91305e-11
7.27596e-11
8.54925e-11
9.91349e-11
8.54925e-11
7.7307e-11
8.2764e-11
5.27507e-11
8.0945e-11
7.27596e-11
6.45741e-11
1.18234e-11
2.27374e-11
4.54745e-12
7.27596e-11
9.3678e-11
5.27507e-11
1.15506e-10
9.09495e-11
5.27507e-11
7.54881e-11
8.73115e-11
1.35515e-10
1.19144e-10
6.27551e-11
8.36735e-11
7.9126e-11
9.91349e-11
8.73115e-11
6.91216e-11
4.09272e-11
1.09139e-10
5.72981e-11
6.63931e-11
9.3678e-11
7.91261e-11
6.36643e-12
7.09406e-11
1.00954e-10
5.63886e-11
6.91216e-11
1.00954e-10
7.27596e-11
4.27462e-11
6.09361e-11
1.31877e-10
1.0732e-10
4.91127e-11
9.91349e-11
1.15506e-10
6.27551e-11
8.91305e-11
7.73071e-11
4.63842e-11
6.91216e-11
1.01863e-10
3.27417e-11
9.3678e-11
2.18278e-11
-1.36425e-11
1.81899e-11
6.09361e-11
7.27596e-11
1.19144e-10
8.0945e-11
2.45563e-11
8.91305e-11
1.00954e-10
9.36779e-11
7.27596e-11
9.9135e-11
7.27595e-11
8.73115e-11
6.91216e-11
1.01863e-10
9.7316e-11
7.9126e-11
7.9126e-11
7.7307e-11
7.27596e-11
6.73026e-11
9.5497e-11
-2.81332e-17
-3.638e-12
5.72982e-11
6.09362e-11
6.73026e-11
9.27685e-11
5.63887e-11
7.9126e-11
9.27685e-11
9.09495e-11
3.81987e-11
6.09361e-11
9.27685e-11
5.63886e-11
5.09317e-11
7.54881e-11
7.27596e-11
1.05501e-10
7.54881e-11
8.2764e-11
7.54881e-11
9.27685e-11
4.00178e-11
1.18234e-11
-1.36425e-11
3.63798e-11
2.63753e-11
1.0732e-10
1.15506e-10
9.54969e-11
1.09139e-10
7.9126e-11
1.33696e-10
7.9126e-11
7.5488e-11
9.27685e-11
6.91216e-11
8.73115e-11
4.63842e-11
8.36735e-11
8.36735e-11
6.09361e-11
8.54925e-11
7.45786e-11
4.63842e-11
1.81894e-12
6.36643e-12
1.13687e-10
1.01863e-10
5.72982e-11
6.73026e-11
6.45741e-11
1.28239e-10
8.54925e-11
6.63931e-11
8.91305e-11
1.00954e-10
1.31877e-10
6.27551e-11
1.20053e-10
9.73159e-11
7.27596e-11
9.09495e-11
6.73026e-11
8.73115e-11
1.17325e-10
8.73115e-11
7.45786e-11
6.45742e-11
-2.81067e-17
2.00088e-11
1.23691e-10
1.63708e-11
7.09406e-11
7.73071e-11
8.73115e-11
8.0945e-11
8.2764e-11
8.54925e-11
7.09406e-11
7.45785e-11
8.91305e-11
6.91216e-11
8.54925e-11
5.27507e-11
7.9126e-11
9.91349e-11
8.54925e-11
2.27373e-11
1.00044e-11
6.27551e-11
4.82032e-11
-4.09133e-17
8.36736e-11
1.01863e-10
4.63842e-11
8.73115e-11
5.72981e-11
8.73115e-11
7.27596e-11
6.73026e-11
7.9126e-11
9.73159e-11
1.05501e-10
6.91216e-11
6.45741e-11
7.27596e-11
8.2764e-11
7.5488e-11
1.11868e-10
6.27551e-11
9.09495e-11
7.91261e-11
9.5497e-11
4.09272e-11
-2.65407e-17
2.81943e-11
1.36424e-10
3.27417e-11
1.28239e-10
9.3678e-11
6.63931e-11
5.27507e-11
9.7316e-11
6.09361e-11
1.05501e-10
1.05501e-10
9.09495e-11
7.73071e-11
4.09272e-11
7.45786e-11
6.91216e-11
5.45696e-11
1.23691e-10
1.01863e-10
7.09406e-11
9.27685e-11
7.73071e-11
1.63709e-11
4.27463e-11
7.09406e-11
1.18234e-11
5.72982e-11
3.00133e-11
2.00089e-11
7.73071e-11
3.81988e-11
5.27507e-11
4.63842e-11
1.2551e-10
4.45652e-11
4.45653e-11
6.73026e-11
8.54926e-11
1.63709e-11
3.09228e-11
9.7316e-11
7.7307e-11
1.13687e-10
1.23691e-10
1.05501e-10
3.09228e-11
2.45564e-11
2.27374e-11
-2.63754e-11
1.18235e-11
-3.63798e-11
-3.63798e-11
-4.27463e-11
-4.00178e-11
-3.63798e-11
-3.638e-12
-6.3665e-12
8.18546e-12
-4.91128e-11
-3.63798e-11
3.63798e-12
-1.36424e-11
6.73848e-18
-3.63799e-11
3.09228e-11
4.54743e-12
-3.7458e-17
-3.63804e-12
7.54881e-11
6.45742e-11
5.45697e-11
2.45564e-11
-1.63709e-11
-8.91305e-11
-2.00089e-11
8.18548e-12
1.00045e-11
-5.63887e-11
3.81988e-11
-3.63798e-11
1.81899e-11
-3.63798e-11
-7.27596e-11
-1.63709e-11
-4.27463e-11
-3.63796e-12
-2.00089e-11
1.00044e-11
-3.56402e-18
-3.63799e-12
1.63709e-11
1.03682e-10
4.82032e-11
247.013
131.652
0.0443628
0.0732976
206.813
147.473
38.1344
3.76277
142.624
129.279
78.8068
20.6727
63.1925
91.8454
79.9125
48.904
35.9154
63.6341
68.1286
56.8546
29.2734
50.5475
57.6604
51.1571
23.0277
38.1013
42.9715
38.714
12.8089
20.1373
21.0325
17.5496
4.26309
6.28032
6.14085
4.30569
0.999134
1.31115
1.1958
0.694179
0.175228
0.199538
0.166217
0.0812847
0.0247788
0.0242325
0.0180387
0.00759948
0.00268031
0.00252678
0.00165547
0.000605053
0.00205589
0.000292393
0.000133181
4.24828e-05
0.00192338
7.83709e-05
1.06642e-05
2.6684e-06
0.00112563
2.61125e-05
1.1965e-06
1.67965e-07
0.000260896
5.83336e-06
1.67166e-07
1.18186e-08
4.16179e-05
9.1793e-07
2.05997e-08
9.9041e-10
4.70233e-06
1.04112e-07
1.79156e-09
7.0938e-11
3.19876e-07
7.55381e-09
9.27577e-11
-6.36667e-12
2.1957e-08
4.71087e-10
-2.00097e-11
2.27375e-11
1.11939e-09
4.27447e-11
1.63709e-11
-1.00045e-11
4.00089e-11
-1.00045e-11
-3.63797e-12
-1.00045e-11
-3.45037e-16
1.45519e-11
2.00089e-11
3.00133e-11
2.18279e-11
1.63709e-11
1.63709e-11
3.09228e-11
-2.27375e-11
-3.63786e-12
-7.91263e-11
1.6371e-11
1.00045e-11
1.18235e-11
-1.00044e-11
-2.00089e-11
1.81899e-11
3.27419e-11
8.18546e-12
-1.00045e-11
8.1854e-12
2.27375e-11
-2.27375e-11
1.81899e-11
1.18234e-11
-6.36648e-12
-3.00134e-11
4.54747e-12
2.27373e-11
2.63754e-11
-2.27375e-11
1.36425e-11
3.00133e-11
5.27508e-11
-1.00045e-11
-2.0009e-11
4.09273e-11
5.45698e-11
2.27374e-11
1.18234e-11
4.54746e-12
1.36424e-11
-1.00045e-11
-3.63799e-12
2.63752e-11
5.72984e-11
-4.27464e-11
-6.91217e-11
8.18539e-12
3.81989e-11
-3.00135e-11
3.27419e-11
1.00043e-11
6.27554e-11
-4.27465e-11
2.45564e-11
3.09228e-11
6.09363e-11
-1.26088e-17
-3.27419e-11
8.1854e-12
3.00135e-11
-4.27464e-11
4.54754e-12
-3.63799e-11
1.4552e-11
4.08531e-17
-3.00135e-11
4.5474e-12
1.6371e-11
-2.27376e-11
8.91308e-11
7.54882e-11
-6.36661e-12
1.18236e-11
-5.91173e-11
0.0263098
0.00348434
0.000178693
7.57629e-06
2.21355e-07
5.22951e-09
1.36422e-10
6.09361e-11
7.45786e-11
1.18234e-11
-3.638e-12
1.81896e-12
1.18234e-11
-6.3665e-12
1.00044e-11
5.09317e-11
2.18279e-11
5.45697e-11
1.81899e-11
0.307718
0.043643
0.0025059
0.00011698
3.91451e-06
1.10009e-07
2.66115e-09
1.38242e-10
8.0945e-11
2.27373e-11
5.72982e-11
1.81899e-11
4.45653e-11
7.45786e-11
5.09317e-11
1.63709e-11
1.00044e-11
6.09362e-11
1.45519e-11
3.4366
0.375717
0.024331
0.00127448
4.63099e-05
1.37672e-06
3.33808e-08
7.23949e-10
5.63885e-11
5.45697e-11
5.45697e-11
1.63709e-11
2.27373e-11
6.45741e-11
6.91216e-11
2.81943e-11
4.09273e-11
-6.36652e-12
5.91172e-11
13.5856
2.02691
0.142192
0.00783042
0.000312729
9.89535e-06
2.4588e-07
4.71476e-09
1.35514e-10
4.27462e-11
7.45786e-11
2.18278e-11
4.82032e-11
1.05501e-10
6.45741e-11
6.91216e-11
4.09273e-11
2.63753e-11
6.63931e-11
21.2978
3.61433
0.289521
0.0162795
0.000604955
1.59227e-05
3.22816e-07
5.17949e-09
1.03681e-10
4.27462e-11
7.73071e-11
5.45697e-11
-3.63805e-12
7.54881e-11
5.91172e-11
5.09317e-11
4.27462e-11
4.45653e-11
4.00178e-11
20.7599
3.89932
0.451333
0.0242052
0.000876861
2.20996e-05
4.10941e-07
5.86523e-09
9.91335e-11
3.63798e-11
4.45652e-11
7.54881e-11
5.63887e-11
5.27507e-11
4.45652e-11
1.03682e-10
9.5497e-11
-2.63754e-11
2.45564e-11
14.4636
2.21664
0.20876
0.00926197
0.0003064
7.09056e-06
1.21416e-07
1.64979e-09
5.45693e-11
8.36735e-11
8.2764e-11
6.09361e-11
2.27373e-11
4.00178e-11
4.63842e-11
6.63931e-11
8.2764e-11
1.45519e-11
2.18279e-11
4.78886
0.567855
0.0474155
0.00257282
7.43712e-05
1.61377e-06
2.64168e-08
4.15632e-10
6.6393e-11
5.91171e-11
4.91127e-11
6.73026e-11
6.91216e-11
4.45652e-11
7.54881e-11
7.27596e-11
5.91171e-11
3.00133e-11
4.91127e-11
0.899134
0.0915298
0.0066576
0.000341203
9.17404e-06
1.88172e-07
3.03129e-09
8.09442e-11
7.27596e-11
9.7316e-11
4.45652e-11
6.73026e-11
3.09228e-11
3.27418e-11
6.63931e-11
-7.55688e-17
8.54926e-11
1.81894e-12
5.91172e-11
0.121578
0.0110306
0.000725535
3.68053e-05
1.21992e-06
2.19412e-08
3.72887e-10
6.4574e-11
7.73071e-11
8.2764e-11
3.00133e-11
1.00954e-10
7.91261e-11
7.09406e-11
6.45741e-11
4.91127e-11
5.91172e-11
1.63709e-11
4.27463e-11
0.0125941
0.0010339
6.23731e-05
3.01058e-06
1.0524e-07
2.50381e-09
5.91164e-11
6.91216e-11
4.91127e-11
6.45741e-11
2.63753e-11
7.27596e-11
4.45652e-11
5.09317e-11
4.09272e-11
5.09317e-11
4.63842e-11
-1.00045e-11
-3.638e-12
0.00106522
7.95013e-05
4.39343e-06
1.99752e-07
6.93755e-09
2.41923e-10
3.81987e-11
7.54881e-11
3.27418e-11
7.45786e-11
4.91127e-11
4.27462e-11
5.91172e-11
4.91127e-11
8.54925e-11
5.45697e-11
4.45652e-11
3.00133e-11
3.00133e-11
7.59047e-05
5.11737e-06
2.56681e-07
1.09184e-08
3.81074e-10
6.4574e-11
2.81943e-11
6.63931e-11
2.27373e-11
7.09406e-11
7.27596e-11
7.45786e-11
4.91127e-11
4.27462e-11
6.91216e-11
7.09406e-11
6.09362e-11
2.18279e-11
3.27418e-11
4.78789e-06
2.78669e-07
1.24518e-08
5.33867e-10
3.81985e-11
3.27418e-11
5.09317e-11
4.45652e-11
7.73071e-11
8.54925e-11
5.27507e-11
4.09272e-11
8.36735e-11
8.91305e-11
4.00177e-11
5.91172e-11
3.27418e-11
-3.00134e-11
4.00178e-11
2.72366e-07
1.36177e-08
5.275e-10
5.91169e-11
8.73115e-11
8.36735e-11
1.45519e-11
4.45652e-11
1.19144e-10
1.01863e-10
1.18234e-11
9.9135e-11
4.09272e-11
5.45697e-11
6.45741e-11
2.45563e-11
2.63753e-11
1.18234e-11
3.81988e-11
1.4318e-08
5.9844e-10
7.27593e-11
4.91127e-11
8.54925e-11
8.73115e-11
2.18278e-11
9.3678e-11
8.36735e-11
2.45563e-11
5.72982e-11
6.09361e-11
8.09451e-11
8.91305e-11
4.63842e-11
3.81988e-11
2.63753e-11
-3.638e-12
3.81988e-11
7.22131e-10
1.45516e-11
5.91172e-11
8.54925e-11
5.45696e-11
9.5497e-11
8.73115e-11
8.0945e-11
6.09361e-11
2.27373e-11
4.00177e-11
3.63798e-11
5.45697e-11
2.00088e-11
1.00954e-10
5.72982e-11
7.73071e-11
-1.00045e-11
1.09139e-10
4.09267e-11
-1.6371e-11
6.27552e-11
5.09317e-11
9.09495e-11
7.09406e-11
5.09317e-11
7.45786e-11
4.82032e-11
6.09362e-11
9.7316e-11
6.45741e-11
8.91305e-11
8.54925e-11
9.3678e-11
1.18234e-11
2.81943e-11
-3.63801e-12
8.36735e-11
3.81988e-11
2.18279e-11
7.27596e-11
6.45741e-11
6.45741e-11
2.81943e-11
2.63753e-11
3.00133e-11
4.63842e-11
5.91172e-11
9.3678e-11
4.45652e-11
5.72982e-11
8.2764e-11
4.63842e-11
2.45563e-11
6.27552e-11
2.00088e-11
1.17325e-10
3.45608e-11
3.63794e-12
5.09317e-11
5.45697e-11
2.27373e-11
3.27418e-11
5.09317e-11
6.73026e-11
1.05501e-10
4.82032e-11
9.9135e-11
7.27596e-11
4.45652e-11
7.91261e-11
-6.36653e-12
8.09451e-11
6.27551e-11
4.45652e-11
9.91349e-11
1.63709e-11
4.00178e-11
7.27596e-11
7.09406e-11
7.27596e-11
3.45608e-11
3.81988e-11
2.81943e-11
6.45741e-11
7.27596e-11
5.27507e-11
6.63931e-11
9.7316e-11
5.63887e-11
8.18541e-12
6.63931e-11
9.7316e-11
2.63753e-11
6.09361e-11
4.63842e-11
8.54925e-11
6.45741e-11
7.54881e-11
4.63842e-11
9.9135e-11
9.9135e-11
1.81898e-11
6.09361e-11
1.01863e-10
6.27551e-11
3.63797e-11
7.54881e-11
8.91305e-11
6.27551e-11
6.63931e-11
9.3678e-11
-3.63799e-11
5.91172e-11
5.09317e-11
5.45697e-11
1.09139e-10
8.54925e-11
3.81988e-11
6.09361e-11
8.0945e-11
7.09406e-11
8.73115e-11
5.72981e-11
8.36735e-11
8.36735e-11
7.54881e-11
1.19144e-10
5.45697e-11
4.00177e-11
9.3678e-11
-4.27463e-11
3.27418e-11
5.27507e-11
1.36424e-11
8.2764e-11
6.09361e-11
4.63842e-11
7.91261e-11
8.2764e-11
3.45607e-11
8.73115e-11
6.63931e-11
9.27685e-11
6.63931e-11
4.63842e-11
3.00133e-11
4.45652e-11
8.2764e-11
9.9135e-11
4.27463e-11
6.63931e-11
3.63798e-11
3.63798e-11
8.2764e-11
7.09406e-11
4.00178e-11
4.00177e-11
7.09406e-11
7.91261e-11
1.81894e-12
4.27462e-11
6.63931e-11
2.63753e-11
6.63931e-11
6.27552e-11
5.63887e-11
6.45741e-11
6.09361e-11
4.45652e-11
6.27551e-11
6.73027e-11
8.73115e-11
1.13687e-10
6.27551e-11
3.81988e-11
6.63931e-11
7.09406e-11
7.73071e-11
-6.36652e-12
4.45653e-11
-3.63804e-12
5.45697e-11
7.91261e-11
3.81987e-11
2.45563e-11
7.73071e-11
6.27551e-11
6.63931e-11
5.09317e-11
-1.36425e-11
4.45652e-11
8.91305e-11
4.45652e-11
4.91127e-11
5.72982e-11
3.63791e-12
8.91305e-11
6.09362e-11
2.63753e-11
5.09317e-11
4.27462e-11
8.54925e-11
1.21872e-10
6.63931e-11
7.54881e-11
7.27596e-11
-1.00045e-11
6.09362e-11
4.91128e-11
2.63753e-11
4.00178e-11
6.91216e-11
4.45652e-11
8.73115e-11
5.45697e-11
3.00133e-11
4.00177e-11
7.73071e-11
7.73071e-11
4.45652e-11
4.09272e-11
7.73071e-11
5.91172e-11
6.27551e-11
5.45697e-11
-4.00178e-11
4.63842e-11
6.09362e-11
2.18279e-11
3.09228e-11
3.63798e-11
1.01863e-10
8.2764e-11
4.00178e-11
5.91172e-11
8.73115e-11
5.63887e-11
4.91127e-11
4.45652e-11
5.63887e-11
6.27551e-11
4.82032e-11
5.72982e-11
3.81988e-11
2.63754e-11
6.27551e-11
5.91172e-11
-2.63754e-11
5.63887e-11
5.45697e-11
1.45519e-11
5.63887e-11
2.81943e-11
3.63798e-11
5.91172e-11
2.63753e-11
2.63753e-11
7.73071e-11
1.36424e-11
6.91216e-11
7.45786e-11
6.27551e-11
7.45786e-11
1.81898e-11
8.73115e-11
4.45653e-11
1.18234e-11
8.09451e-11
6.63931e-11
-1.00045e-11
6.45741e-11
4.00178e-11
3.63798e-11
7.54881e-11
4.91127e-11
9.7316e-11
3.63797e-11
4.63842e-11
5.91172e-11
4.45652e-11
8.36736e-11
6.27551e-11
5.45697e-11
5.63887e-11
3.09228e-11
2.27374e-11
9.3678e-11
7.09406e-11
7.09406e-11
1.11868e-10
5.27507e-11
5.63887e-11
4.82032e-11
9.7316e-11
4.91127e-11
6.63931e-11
8.73115e-11
8.0945e-11
6.91216e-11
3.09228e-11
4.63842e-11
1.81896e-12
6.27552e-11
1.00044e-11
-3.63801e-12
5.63887e-11
5.27507e-11
5.72982e-11
2.63753e-11
1.81899e-11
7.27596e-11
5.45697e-11
4.45652e-11
4.91127e-11
4.00177e-11
7.45786e-11
4.82032e-11
8.36735e-11
3.63798e-11
7.27596e-11
-3.63799e-11
5.91172e-11
4.27463e-11
1.18234e-11
9.3678e-11
6.45741e-11
-2.27374e-11
6.63932e-11
2.27373e-11
6.63931e-11
6.27551e-11
6.09361e-11
8.91305e-11
9.7316e-11
6.09361e-11
6.27551e-11
1.13687e-10
6.91216e-11
8.73115e-11
8.18543e-12
9.27685e-11
-1.00045e-11
4.91127e-11
8.2764e-11
1.00954e-10
8.18542e-12
3.45608e-11
5.63887e-11
4.91127e-11
4.00177e-11
6.09362e-11
1.17325e-10
2.27373e-11
8.91305e-11
5.91172e-11
7.09406e-11
4.45652e-11
5.72982e-11
-1.36425e-11
7.09406e-11
6.63932e-11
1.81895e-12
5.91172e-11
6.73026e-11
4.63842e-11
9.27685e-11
1.63708e-11
9.09495e-11
7.27596e-11
1.45519e-11
4.45652e-11
5.91172e-11
2.81943e-11
3.00133e-11
6.63931e-11
3.81988e-11
9.09495e-11
6.73027e-11
4.82032e-11
5.91172e-11
-1.6371e-11
2.00089e-11
6.45741e-11
8.54925e-11
7.54881e-11
3.27418e-11
5.45697e-11
8.36736e-11
4.91127e-11
3.45608e-11
7.27596e-11
5.91172e-11
7.09406e-11
6.27551e-11
3.27418e-11
8.27641e-11
-6.36653e-12
6.63931e-11
3.63798e-11
2.18279e-11
2.63753e-11
5.72982e-11
4.63842e-11
6.09361e-11
1.81899e-11
5.27507e-11
-1.00045e-11
8.27641e-11
7.73071e-11
6.73026e-11
4.82032e-11
8.09451e-11
5.63887e-11
5.91172e-11
6.45741e-11
-6.3665e-12
2.45563e-11
3.27418e-11
3.09228e-11
6.09362e-11
1.00044e-11
6.73026e-11
1.19144e-10
6.63931e-11
8.36736e-11
-2.0009e-11
5.45697e-11
4.45652e-11
7.73071e-11
3.09228e-11
6.45741e-11
4.82032e-11
6.63931e-11
2.81943e-11
1.45519e-11
3.81988e-11
5.09318e-11
1.63709e-11
8.27641e-11
6.73026e-11
8.73115e-11
5.72982e-11
6.73027e-11
4.91127e-11
8.73116e-11
8.27641e-11
7.27596e-11
4.82032e-11
1.20053e-10
7.73071e-11
7.73071e-11
3.00133e-11
1.09139e-10
-1.00045e-11
9.5497e-11
1.63709e-11
5.45697e-11
4.54742e-12
-2.27374e-11
-6.36651e-12
1.63709e-11
-6.91217e-11
-2.63754e-11
6.36645e-12
-2.63754e-11
1.45519e-11
1.00044e-11
4.00178e-11
-5.63888e-11
2.18279e-11
-6.36651e-12
2.27373e-11
2.45564e-11
1.18234e-11
-1.63709e-11
1.18234e-11
8.27641e-11
7.09406e-11
6.09362e-11
5.09317e-11
3.27418e-11
2.18279e-11
3.81988e-11
5.45697e-11
4.91127e-11
3.81988e-11
7.54881e-11
7.45786e-11
6.45741e-11
7.73071e-11
9.5497e-11
3.27418e-11
-3.63799e-12
)
;

boundaryField
{
    leftWall
    {
        type            zeroGradient;
    }
    rightWall
    {
        type            zeroGradient;
    }
    lowerWall
    {
        type            zeroGradient;
    }
    atmosphere
    {
        type            zeroGradient;
    }
    defaultFaces
    {
        type            empty;
    }
}


// ************************************************************************* //
