/*--------------------------------*- C++ -*----------------------------------*\
| =========                 |                                                 |
| \\      /  F ield         | foam-extend: Open Source CFD                    |
|  \\    /   O peration     | Version:     4.1                                |
|   \\  /    A nd           | Web:         http://www.foam-extend.org         |
|    \\/     M anipulation  |                                                 |
\*---------------------------------------------------------------------------*/
FoamFile
{
    version     2.0;
    format      ascii;
    class       volVectorField;
    location    "0.15";
    object      U;
}
// * * * * * * * * * * * * * * * * * * * * * * * * * * * * * * * * * * * * * //

dimensions      [0 1 -1 0 0 0 0];

internalField   nonuniform List<vector> 
2268
(
(0.00687385 -0.0083015 0)
(0.0555156 -0.00661147 0)
(0.107809 -0.00694924 0)
(0.175483 -0.00766381 0)
(0.225701 -0.00740149 0)
(0.32111 -0.0120813 0)
(0.38357 -0.00222352 0)
(0.431084 -0.0158797 0)
(0.6545 -0.0100444 0)
(0.653649 -0.0537175 0)
(0.675179 -0.0234684 0)
(0.884083 -0.105305 0)
(1.3606 -0.0247727 0)
(1.47947 -0.0196975 0)
(1.62895 0.19147 0)
(1.6135 0.11537 0)
(1.44331 0.106854 0)
(0.954791 0.0543004 0)
(0.828907 -0.0262232 0)
(0.77216 -0.0503486 0)
(0.759837 0.00724399 0)
(0.630403 -0.00233107 0)
(0.531269 0.211324 0)
(0.00790641 -0.0198764 0)
(0.0564873 -0.0183039 0)
(0.107663 -0.0202182 0)
(0.175617 -0.0220158 0)
(0.224752 -0.0254598 0)
(0.322565 -0.0287566 0)
(0.384771 -0.0457034 0)
(0.428199 -0.0551125 0)
(0.650581 -0.0594188 0)
(0.63519 -0.199086 0)
(0.683752 -0.166239 0)
(0.941529 -0.377514 0)
(1.29712 -0.193149 0)
(1.48025 -0.114914 0)
(1.60508 0.243969 0)
(1.54849 0.202933 0)
(1.1882 0.148389 0)
(0.41193 0.115816 0)
(0.248426 0.157057 0)
(0.254416 -0.248871 0)
(0.525774 -0.0804963 0)
(0.626077 0.282259 0)
(0.318523 0.514129 0)
(0.00877768 -0.0394538 0)
(0.0557616 -0.0318452 0)
(0.106399 -0.0342583 0)
(0.173391 -0.0373667 0)
(0.223734 -0.0404013 0)
(0.309501 -0.0515024 0)
(0.378527 -0.0400853 0)
(0.429457 -0.0899461 0)
(0.594827 -0.0760678 0)
(0.569422 -0.242777 0)
(0.688237 -0.239341 0)
(0.768944 -0.600298 0)
(1.02224 -0.488736 0)
(1.23933 -0.137799 0)
(1.63399 0.476051 0)
(1.54875 0.432244 0)
(1.01693 0.324351 0)
(0.216733 0.267245 0)
(0.131375 0.144366 0)
(0.58011 -0.35796 0)
(0.657795 -0.303072 0)
(0.859926 0.169759 0)
(0.569898 0.650412 0)
(0.0126281 -0.0456213 0)
(0.059944 -0.0417689 0)
(0.105108 -0.0464673 0)
(0.172273 -0.0513206 0)
(0.220008 -0.0561145 0)
(0.320266 -0.0708865 0)
(0.383671 -0.0300907 0)
(0.421867 -0.107977 0)
(0.55496 -0.106105 0)
(0.53255 -0.227154 0)
(0.570484 -0.247314 0)
(0.348564 -0.622072 0)
(0.257037 -0.291225 0)
(0.499251 -0.122148 0)
(1.35535 0.512367 0)
(1.3182 0.466914 0)
(0.975109 0.443116 0)
(0.499482 0.243639 0)
(0.690258 -0.0188127 0)
(1.06571 -0.368052 0)
(0.774806 -0.220392 0)
(0.782043 0.309791 0)
(0.534721 0.757861 0)
(0.0114818 -0.0801026 0)
(0.0574757 -0.056774 0)
(0.101768 -0.0604561 0)
(0.168297 -0.0668401 0)
(0.21726 -0.0749127 0)
(0.332736 -0.0933214 0)
(0.35759 -0.0726838 0)
(0.411499 -0.138406 0)
(0.503077 -0.0880988 0)
(0.520001 -0.237362 0)
(0.468037 -0.260877 0)
(0.270045 -0.403038 0)
(-0.0750061 -0.305977 0)
(-0.448781 -0.428221 0)
(0.975022 0.404494 0)
(1.05861 0.432096 0)
(1.08832 0.532542 0)
(1.01888 0.427205 0)
(0.976891 0.0366968 0)
(1.35057 -0.217393 0)
(0.901827 -0.106555 0)
(0.702395 0.397601 0)
(0.532305 0.915149 0)
(0.0245652 -0.0631829 0)
(0.0685931 -0.0636358 0)
(0.0999258 -0.0707162 0)
(0.164687 -0.0794923 0)
(0.211256 -0.0938556 0)
(0.328232 -0.107203 0)
(0.330567 -0.138964 0)
(0.410252 -0.154973 0)
(0.440599 -0.156396 0)
(0.441483 -0.207085 0)
(0.438649 -0.326779 0)
(0.337464 -0.275193 0)
(-0.156945 -0.291678 0)
(-0.555596 -0.451863 0)
(0.399547 0.052117 0)
(0.675471 0.254194 0)
(1.01492 0.543023 0)
(0.706358 0.323259 0)
(0.697796 0.0693058 0)
(0.737554 -0.141618 0)
(0.517461 -0.0374516 0)
(0.665849 0.420002 0)
(0.462575 1.01888 0)
(0.0128704 -0.0441987 0)
(0.0544733 -0.0783621 0)
(0.0938443 -0.0833708 0)
(0.157644 -0.0964441 0)
(0.200861 -0.112861 0)
(0.305957 -0.125633 0)
(0.310047 -0.132745 0)
(0.415756 -0.192639 0)
(0.438584 -0.252951 0)
(0.41595 -0.220582 0)
(0.403522 -0.238966 0)
(0.416822 -0.223344 0)
(0.070575 -0.115438 0)
(-0.547904 -0.357185 0)
(-0.6904 -0.260493 0)
(-0.0439015 0.170139 0)
(0.441318 0.48863 0)
(0.271149 0.352898 0)
(0.318004 -0.0736975 0)
(0.606587 -0.0965066 0)
(0.705296 0.0881865 0)
(0.645783 0.454492 0)
(0.460073 1.13609 0)
(0.0082999 -0.0727268 0)
(0.0499825 -0.0777378 0)
(0.0897765 -0.0922869 0)
(0.149296 -0.102988 0)
(0.188736 -0.126105 0)
(0.299317 -0.139323 0)
(0.28069 -0.196777 0)
(0.341882 -0.18031 0)
(0.420375 -0.26401 0)
(0.426497 -0.209445 0)
(0.404812 -0.183308 0)
(0.370518 -0.13476 0)
(-0.113623 0.160226 0)
(-0.346381 -0.140748 0)
(-0.554411 -0.191328 0)
(-1.02959 -0.0868152 0)
(-0.299001 0.238751 0)
(0.227043 0.140759 0)
(0.508983 -0.189991 0)
(0.514585 -0.247039 0)
(0.600015 0.0885545 0)
(0.604785 0.629065 0)
(0.433246 1.36324 0)
(-0.00348703 -0.00535432 0)
(0.0173912 -0.0237911 0)
(0.055562 -0.00850828 0)
(0.0923905 -0.00627838 0)
(0.108349 -0.00376499 0)
(0.114073 -0.00125823 0)
(0.120062 0.000294752 0)
(0.120488 0.000255413 0)
(0.118899 0.000493542 0)
(0.116434 0.00148151 0)
(0.109301 -0.00204049 0)
(0.118666 -0.0106746 0)
(0.135859 0.0173415 0)
(0.1212 0.00312976 0)
(0.0844999 0.00317766 0)
(0.0656653 0.00213833 0)
(0.0446912 0.0020284 0)
(0.0268171 0.00190702 0)
(0.00857931 0.00185534 0)
(-0.0094534 -0.00536861 0)
(0.0166015 -0.02503 0)
(0.0668407 -0.0239991 0)
(0.100042 -0.0166433 0)
(0.117044 -0.0119816 0)
(0.123299 -0.00550188 0)
(0.128003 -0.00204629 0)
(0.128067 2.01179e-05 0)
(0.126315 0.00378628 0)
(0.122586 0.00586277 0)
(0.110198 0.00342897 0)
(0.132734 -0.000340464 0)
(0.154451 0.0315713 0)
(0.119148 0.00918981 0)
(0.0895651 0.00857399 0)
(0.0688214 0.00667495 0)
(0.0470593 0.00632223 0)
(0.0282015 0.00597849 0)
(0.0090384 0.00581543 0)
(-0.00822433 -0.0116545 0)
(0.0102975 -0.0324684 0)
(0.063488 -0.0438478 0)
(0.102529 -0.0282485 0)
(0.119481 -0.0208313 0)
(0.125947 -0.00543305 0)
(0.12974 -0.00265174 0)
(0.130493 0.000730678 0)
(0.128886 0.00643662 0)
(0.121824 0.0150305 0)
(0.115408 -0.00803588 0)
(0.132779 0.049619 0)
(0.152139 0.0267142 0)
(0.118609 0.0164772 0)
(0.089799 0.0141765 0)
(0.0685169 0.0114441 0)
(0.0469508 0.0107243 0)
(0.0281233 0.0101577 0)
(0.00902249 0.00987829 0)
(-0.0119677 -0.00135376 0)
(0.00639612 -0.0543681 0)
(0.0680378 -0.0638396 0)
(0.10825 -0.0407263 0)
(0.126209 -0.0291267 0)
(0.131264 -0.0145796 0)
(0.130573 -0.00327851 0)
(0.131853 -0.00106099 0)
(0.13239 0.0128927 0)
(0.114727 0.0173355 0)
(0.129593 0.00503158 0)
(0.152599 0.0705135 0)
(0.142422 0.0339584 0)
(0.110397 0.0228036 0)
(0.088165 0.0192597 0)
(0.067523 0.0160684 0)
(0.0466077 0.015006 0)
(0.0279302 0.0142528 0)
(0.00897515 0.0138626 0)
(-0.0162018 -0.0124662 0)
(0.000475763 -0.0685464 0)
(0.0686083 -0.087113 0)
(0.114682 -0.0536879 0)
(0.129778 -0.0380622 0)
(0.137037 -0.0228673 0)
(0.134172 -0.00204524 0)
(0.137485 0.000957214 0)
(0.135703 0.0231244 0)
(0.119967 0.00118071 0)
(0.131661 0.0601821 0)
(0.151054 0.0549424 0)
(0.137693 0.0361509 0)
(0.109374 0.0282291 0)
(0.0867611 0.0235802 0)
(0.0667088 0.020531 0)
(0.0461875 0.01923 0)
(0.0276932 0.0183392 0)
(0.0089122 0.0178477 0)
(0.0137493 0.01296 0)
(0.0291474 -0.0900682 0)
(0.0818114 -0.115991 0)
(0.123966 -0.066804 0)
(0.138184 -0.045465 0)
(0.14694 -0.0222964 0)
(0.138602 -0.000975015 0)
(0.143513 -0.00443456 0)
(0.132179 0.0294081 0)
(0.131676 0.0431628 0)
(0.153734 0.0808733 0)
(0.141745 0.0672569 0)
(0.128999 0.0418306 0)
(0.106269 0.0341847 0)
(0.0849978 0.0282784 0)
(0.0656891 0.0249563 0)
(0.04568 0.0233954 0)
(0.0274123 0.0223748 0)
(0.00883664 0.0217862 0)
(0.06362 -0.0418229 0)
(0.066466 -0.0938836 0)
(0.103439 -0.127057 0)
(0.137545 -0.0812186 0)
(0.145649 -0.0555329 0)
(0.156675 -0.0234661 0)
(0.138985 0.00494589 0)
(0.151478 0.00692099 0)
(0.15909 0.0374615 0)
(0.13167 0.0769435 0)
(0.144176 0.0692715 0)
(0.138003 0.0644003 0)
(0.122173 0.0446746 0)
(0.103618 0.0375421 0)
(0.0828416 0.0323601 0)
(0.0646436 0.0291075 0)
(0.0450924 0.0274559 0)
(0.0270939 0.0263493 0)
(0.00874758 0.0256807 0)
(-0.0270339 -0.0408818 0)
(0.0706051 -0.113247 0)
(0.104964 -0.137122 0)
(0.149448 -0.0833694 0)
(0.155703 -0.0622591 0)
(0.166993 -0.015787 0)
(0.142787 0.00671778 0)
(0.157244 0.0426748 0)
(0.157535 0.039652 0)
(0.139925 0.0630553 0)
(0.148076 0.0701366 0)
(0.130919 0.0792664 0)
(0.119709 0.0493783 0)
(0.101687 0.0434248 0)
(0.0813866 0.036624 0)
(0.063613 0.033302 0)
(0.04451 0.0315259 0)
(0.0267579 0.0303381 0)
(0.00865323 0.0295873 0)
(0.012803 -0.0672818 0)
(0.0463347 -0.100529 0)
(0.066459 -0.114134 0)
(0.125915 -0.138209 0)
(0.170297 -0.180722 0)
(0.241247 -0.17755 0)
(0.286864 -0.243301 0)
(0.345499 -0.205838 0)
(0.41453 -0.276128 0)
(0.468958 -0.243504 0)
(0.515873 -0.225954 0)
(0.631232 -0.135233 0)
(0.708313 -0.039425 0)
(1.07954 0.126202 0)
(1.70584 -0.130364 0)
(1.54389 -0.275141 0)
(1.47235 -0.118942 0)
(1.19708 0.0663578 0)
(1.03013 -0.106736 0)
(0.845954 -0.301721 0)
(0.830995 -0.11139 0)
(0.679324 0.533144 0)
(0.539745 1.5582 0)
(-0.027795 -0.13906 0)
(0.0113822 -0.113337 0)
(0.0523332 -0.164203 0)
(0.084994 -0.210575 0)
(0.14916 -0.19264 0)
(0.251565 -0.234775 0)
(0.267038 -0.25499 0)
(0.31387 -0.276235 0)
(0.448021 -0.338937 0)
(0.49915 -0.310021 0)
(0.610584 -0.233789 0)
(0.555261 -0.210858 0)
(0.617849 -0.267894 0)
(0.882753 -0.0939981 0)
(1.07803 -0.179835 0)
(0.918598 -0.400513 0)
(0.874915 -0.00171908 0)
(1.00416 0.462056 0)
(1.15572 0.250351 0)
(1.45066 0.235372 0)
(1.16888 0.743711 0)
(0.851888 0.852883 0)
(0.799615 1.47713 0)
(0.0410139 -0.213373 0)
(0.0229735 -0.209047 0)
(0.00917748 -0.169141 0)
(0.101021 -0.234219 0)
(0.174434 -0.183427 0)
(0.179974 -0.263474 0)
(0.255517 -0.290022 0)
(0.295188 -0.316592 0)
(0.400621 -0.398851 0)
(0.535039 -0.321019 0)
(0.590636 -0.413656 0)
(0.581016 -0.44564 0)
(0.740298 -0.526043 0)
(0.851965 -0.472417 0)
(0.95643 -0.266334 0)
(0.931538 -0.189493 0)
(0.863857 -0.164956 0)
(1.0133 -0.014872 0)
(1.68314 -0.053904 0)
(2.32865 0.0218803 0)
(2.32436 0.339797 0)
(1.78315 0.716324 0)
(1.19403 0.929474 0)
(-0.00577648 -0.277634 0)
(0.0874899 -0.291139 0)
(0.0623631 -0.282203 0)
(0.0900988 -0.236626 0)
(0.101052 -0.203488 0)
(0.144842 -0.256197 0)
(0.249762 -0.254132 0)
(0.249409 -0.36141 0)
(0.414644 -0.465769 0)
(0.401904 -0.551276 0)
(0.463305 -0.66781 0)
(0.569508 -0.745283 0)
(0.763972 -0.608932 0)
(0.917296 -0.392817 0)
(0.846331 -0.125928 0)
(0.737399 -0.113037 0)
(0.652108 -0.182782 0)
(0.813558 -0.118956 0)
(1.32556 -0.212043 0)
(1.7165 -0.146049 0)
(1.83711 0.363247 0)
(1.4838 1.09408 0)
(1.26669 1.1115 0)
(0.0265151 -0.374474 0)
(0.0527286 -0.377134 0)
(0.106689 -0.401562 0)
(0.146489 -0.421099 0)
(0.139486 -0.432455 0)
(0.210893 -0.419641 0)
(0.186589 -0.462104 0)
(0.144064 -0.481211 0)
(0.282781 -0.489729 0)
(0.32632 -0.622382 0)
(0.396579 -0.665905 0)
(0.343841 -0.789099 0)
(0.347966 -0.609771 0)
(0.545379 -0.260509 0)
(0.674175 -0.299386 0)
(0.733049 -0.39265 0)
(0.931872 -0.454772 0)
(1.14938 -0.413895 0)
(1.24708 -0.414128 0)
(1.28234 -0.393508 0)
(1.39576 -0.222473 0)
(1.43988 0.573394 0)
(1.21806 0.992992 0)
(0.00156995 -0.425515 0)
(0.0393973 -0.436303 0)
(0.0369746 -0.456429 0)
(0.0899895 -0.492472 0)
(0.131398 -0.515525 0)
(0.158401 -0.517216 0)
(0.188849 -0.567933 0)
(0.209409 -0.554194 0)
(0.285261 -0.484852 0)
(0.273858 -0.577436 0)
(0.244475 -0.604848 0)
(0.0195106 -0.607834 0)
(-0.195111 -0.397311 0)
(0.282916 -0.498408 0)
(0.483281 -0.536787 0)
(0.622016 -0.484396 0)
(0.788019 -0.405653 0)
(1.00182 -0.332665 0)
(0.934148 -0.284414 0)
(0.862416 -0.0496611 0)
(0.946132 0.333235 0)
(0.92592 0.784306 0)
(0.908025 0.974034 0)
(0.0118643 -0.460217 0)
(0.0252971 -0.457673 0)
(0.0382093 -0.490838 0)
(0.0813286 -0.457915 0)
(0.101362 -0.522709 0)
(0.157224 -0.55011 0)
(0.176018 -0.590044 0)
(0.229067 -0.554628 0)
(0.235531 -0.582033 0)
(0.241906 -0.599961 0)
(0.277257 -0.561252 0)
(0.174557 -0.440849 0)
(0.274534 -0.661001 0)
(0.446618 -0.841597 0)
(0.583902 -0.745083 0)
(0.765146 -0.57486 0)
(0.851019 -0.519089 0)
(0.831294 -0.686928 0)
(0.84554 -0.727527 0)
(0.89723 -0.581814 0)
(0.937949 0.075421 0)
(0.713175 0.602767 0)
(0.560089 0.777815 0)
(0.0110795 -0.490033 0)
(0.00586469 -0.493789 0)
(0.0428097 -0.498506 0)
(0.0309057 -0.49806 0)
(0.0281109 -0.569587 0)
(0.109412 -0.474446 0)
(0.188062 -0.540236 0)
(0.224102 -0.572387 0)
(0.235286 -0.626768 0)
(0.295895 -0.612208 0)
(0.329826 -0.613669 0)
(0.36524 -0.553924 0)
(0.499956 -0.650433 0)
(0.621637 -0.819208 0)
(0.693055 -0.771772 0)
(0.829287 -0.663059 0)
(0.782061 -0.779126 0)
(0.638422 -0.883769 0)
(0.661215 -0.863531 0)
(0.641883 -0.569052 0)
(0.6692 0.269663 0)
(0.320966 0.697504 0)
(0.208146 0.781419 0)
(0.00104201 -0.501836 0)
(0.0164392 -0.509534 0)
(0.0458612 -0.491052 0)
(-0.0254571 -0.523627 0)
(0.117404 -0.464493 0)
(0.159599 -0.50495 0)
(0.0922226 -0.500673 0)
(0.143105 -0.5842 0)
(0.209218 -0.631432 0)
(0.258223 -0.606341 0)
(0.287504 -0.73349 0)
(0.31417 -0.743978 0)
(0.423969 -0.756111 0)
(0.460176 -0.676732 0)
(0.500204 -0.623279 0)
(0.782981 -0.74205 0)
(0.745231 -0.975272 0)
(0.648183 -1.00405 0)
(0.543857 -0.923677 0)
(0.404016 -0.554251 0)
(0.221178 0.503997 0)
(0.000855679 0.885973 0)
(-0.0371603 0.830353 0)
(0.00656785 -0.524926 0)
(0.0191253 -0.520694 0)
(0.0315218 -0.48996 0)
(0.0702592 -0.487428 0)
(0.0531583 -0.392076 0)
(0.0600543 -0.604037 0)
(0.146075 -0.530628 0)
(0.125424 -0.62317 0)
(0.210663 -0.632631 0)
(0.162334 -0.689225 0)
(0.198627 -0.723379 0)
(0.0810551 -0.755119 0)
(-0.0891585 -0.817214 0)
(-0.0889818 -0.791012 0)
(-0.0468092 -0.560214 0)
(0.107433 -0.855215 0)
(-0.0843157 -0.604567 0)
(-0.185588 -0.486864 0)
(-0.235608 -0.423225 0)
(-0.366802 0.166585 0)
(-0.351889 0.692412 0)
(-0.293298 0.885066 0)
(-0.193427 0.854818 0)
(0.00882328 -0.551564 0)
(0.0528724 -0.550725 0)
(0.0670009 -0.507124 0)
(0.146152 -0.557491 0)
(0.0478686 -0.610589 0)
(-0.0195873 -0.573056 0)
(0.0534307 -0.594001 0)
(0.0767989 -0.662383 0)
(0.091812 -0.622301 0)
(0.0340591 -0.716433 0)
(0.183415 -0.655383 0)
(-0.0655749 -0.501794 0)
(-0.228018 -0.714239 0)
(-0.180388 -0.767212 0)
(-0.121842 -0.625517 0)
(-0.0803862 -0.631909 0)
(-0.0641038 -0.786279 0)
(0.00445188 -0.75414 0)
(-0.2231 -0.595376 0)
(-0.410653 0.0896296 0)
(-0.392829 0.558038 0)
(-0.300319 0.726694 0)
(-0.220001 0.787894 0)
(0.0093005 -0.590989 0)
(0.0530323 -0.571977 0)
(0.00414728 -0.594684 0)
(0.0571128 -0.679715 0)
(0.0257486 -0.690701 0)
(0.0186662 -0.692864 0)
(0.0416146 -0.666418 0)
(0.0717861 -0.697172 0)
(0.00598307 -0.560294 0)
(-0.140257 -0.817055 0)
(0.170409 -0.657985 0)
(-0.0358777 -0.365005 0)
(-0.285653 -0.820903 0)
(-0.0932064 -0.88804 0)
(-0.0623751 -0.848125 0)
(-0.0832195 -0.896955 0)
(-0.00208059 -0.762433 0)
(-0.0156527 -0.360673 0)
(-0.134561 -0.29219 0)
(-0.392394 0.0741764 0)
(-0.212349 0.506585 0)
(-0.177745 0.684294 0)
(-0.145901 0.748841 0)
(0.0249549 -0.605071 0)
(0.0423016 -0.539438 0)
(-0.0776474 -0.576169 0)
(0.0214664 -0.448966 0)
(0.00377893 -0.679584 0)
(-0.0278173 -0.478505 0)
(0.0847999 -0.615105 0)
(-0.0250809 -0.618689 0)
(-0.187199 -0.444362 0)
(-0.0610597 -0.882574 0)
(0.0962146 -0.804517 0)
(-0.0167063 -0.142244 0)
(-0.202863 -0.902611 0)
(0.0365509 -0.804102 0)
(0.0279273 -0.661361 0)
(0.0302323 -0.674304 0)
(-0.0535008 -0.581395 0)
(-0.269053 -0.249411 0)
(-0.261751 0.337078 0)
(-0.201789 0.180264 0)
(-0.0428483 0.259729 0)
(-0.065077 0.639457 0)
(-0.111941 0.751118 0)
(0.0799433 -0.667754 0)
(0.0604418 -0.489293 0)
(0.0296413 -0.483196 0)
(-0.0428055 -0.365984 0)
(0.0107755 -0.405437 0)
(-0.0125924 -0.398212 0)
(0.0208141 -0.54353 0)
(-0.260438 -0.605217 0)
(-0.395345 -0.557808 0)
(0.229127 -1.05738 0)
(-0.0290186 -0.839432 0)
(0.0749763 0.236544 0)
(-0.0464716 -0.990816 0)
(-0.0278431 -0.909261 0)
(-0.00282569 -0.782572 0)
(-0.00566777 -0.298808 0)
(-0.125485 -0.500816 0)
(0.0180625 -0.815846 0)
(0.104456 -0.540442 0)
(0.256748 -0.0679778 0)
(0.146398 0.39933 0)
(-0.0619009 0.795701 0)
(-0.138981 0.79259 0)
(0.0945641 -0.894144 0)
(0.0945425 -0.4208 0)
(0.0165001 -0.399358 0)
(0.0320539 -0.361488 0)
(0.00185511 -0.279915 0)
(-0.117549 -0.368954 0)
(-0.199006 -0.399043 0)
(-0.2951 -0.531541 0)
(-0.276567 -0.989981 0)
(0.220905 -1.12461 0)
(-0.143821 -0.728783 0)
(0.0519001 -0.016632 0)
(0.304413 -0.832739 0)
(-0.231556 -0.976218 0)
(-0.491422 -0.538299 0)
(-0.60427 -0.641841 0)
(-0.559106 -1.08571 0)
(-0.0471699 -0.596842 0)
(0.118859 -0.203469 0)
(0.0747778 0.150967 0)
(0.00519217 0.588701 0)
(-0.243664 0.87658 0)
(-0.283903 0.822108 0)
(0.0179859 -1.0489 0)
(0.15057 -0.358339 0)
(0.030281 -0.38444 0)
(0.0624022 -0.338394 0)
(0.0554797 -0.264211 0)
(-0.0819822 -0.340497 0)
(-0.223014 -0.125147 0)
(-0.335314 -0.242694 0)
(0.0273596 -1.29098 0)
(-0.167015 -1.13007 0)
(-0.217618 -0.674007 0)
(0.014118 -0.453796 0)
(-0.0129792 -0.541457 0)
(-0.302559 -0.402807 0)
(-0.522597 -0.831084 0)
(-0.669947 -1.16826 0)
(-0.655082 -1.17264 0)
(-0.533241 -0.712864 0)
(-0.420546 -0.257419 0)
(-0.406605 0.427664 0)
(-0.436278 0.699563 0)
(-0.693924 0.79251 0)
(-0.48485 0.807684 0)
(-0.19693 -1.15794 0)
(0.248989 -0.332854 0)
(0.158334 -0.160989 0)
(0.136952 -0.333186 0)
(0.00505066 -0.187493 0)
(-0.103594 -0.34095 0)
(-0.141693 -0.156237 0)
(-0.113033 -0.369032 0)
(0.494176 -1.16441 0)
(-0.327869 -0.843591 0)
(-0.364138 -0.671961 0)
(-0.0955548 -0.304185 0)
(-0.145349 -0.423957 0)
(-0.535238 -0.867083 0)
(-0.528281 -0.873149 0)
(-0.802455 -0.704414 0)
(-0.841696 -0.695011 0)
(-0.712443 -0.502614 0)
(-0.966907 -0.275082 0)
(-1.21828 -0.028873 0)
(-1.2258 0.500604 0)
(-0.969659 0.704925 0)
(-0.652869 0.646741 0)
(0.278144 -1.05622 0)
(0.318625 -0.481577 0)
(-0.040446 0.170263 0)
(0.129044 -0.416294 0)
(0.126789 0.0240892 0)
(-0.336794 -0.0764897 0)
(-0.306588 -0.348953 0)
(-0.0612695 -0.947092 0)
(0.151658 -1.07588 0)
(-0.529539 -0.644756 0)
(-0.560921 -1.12313 0)
(-0.234393 -0.535609 0)
(-0.304822 -0.712041 0)
(-0.479649 -0.754858 0)
(-0.674272 -0.598666 0)
(-0.754623 -0.557962 0)
(-0.651251 -0.415211 0)
(-0.7206 -0.492518 0)
(-1.19929 -0.448287 0)
(-1.42547 -0.123142 0)
(-1.259 0.465262 0)
(-0.909729 0.561403 0)
(-0.717667 0.505018 0)
(-0.337582 -0.934196 0)
(-0.301634 -0.0763342 0)
(-0.155028 0.0100644 0)
(0.214214 -0.687389 0)
(0.14423 0.168185 0)
(0.102075 0.440671 0)
(-0.0394972 -0.458109 0)
(-0.227064 -0.715975 0)
(-0.258701 -0.625879 0)
(-0.601709 -1.02329 0)
(-0.548365 -1.00786 0)
(-0.316648 -0.516739 0)
(-0.497607 -0.57572 0)
(-0.593632 -0.686703 0)
(-0.71624 -0.614821 0)
(-0.649849 -0.264706 0)
(-0.716959 -0.153027 0)
(-0.871189 -0.248605 0)
(-0.842084 -0.291478 0)
(-0.915087 -0.0072306 0)
(-1.09187 0.0824339 0)
(-0.969232 0.369306 0)
(-0.687274 0.401208 0)
(-0.133224 -0.753215 0)
(-0.0912181 -0.253287 0)
(-0.200825 -0.390076 0)
(-0.290265 -0.638628 0)
(-0.263883 0.342405 0)
(0.0710088 0.283929 0)
(0.233867 -0.0994585 0)
(0.140953 -0.813155 0)
(-0.148072 -1.21325 0)
(-0.168333 -1.02151 0)
(-0.468166 -0.829102 0)
(-0.521733 -0.437173 0)
(-0.618807 -0.437955 0)
(-0.653862 -0.424251 0)
(-0.496478 -0.366424 0)
(-0.455524 -0.303295 0)
(-0.673943 -0.156071 0)
(-0.854302 -0.0328446 0)
(-0.918519 -0.00199153 0)
(-0.975487 -0.0443669 0)
(-0.711873 0.0141119 0)
(-0.653695 0.284223 0)
(-0.522212 0.316333 0)
(-0.103199 -1.32642 0)
(-0.044279 -0.20072 0)
(-0.0943051 0.0358854 0)
(-0.0952555 -0.657231 0)
(-0.242508 -0.222762 0)
(0.00757839 -0.155388 0)
(0.131542 -0.356344 0)
(0.00902416 -0.432079 0)
(-0.151249 -0.804734 0)
(-0.213471 -0.948937 0)
(-0.44443 -0.775626 0)
(-0.643048 -0.545524 0)
(-0.647525 -0.390103 0)
(-0.536072 -0.300381 0)
(-0.578106 -0.20399 0)
(-0.512279 -0.266501 0)
(-0.514677 -0.284763 0)
(-0.744408 -0.166815 0)
(-0.821981 -0.115613 0)
(-0.748131 0.0546878 0)
(-0.780795 0.189478 0)
(-0.664254 0.209317 0)
(-0.559993 0.223806 0)
(-0.0822443 -0.578124 0)
(-0.084862 -0.256729 0)
(-0.0488636 -0.33053 0)
(-0.0255313 -0.427786 0)
(-0.292532 -0.224859 0)
(0.0389012 -0.138358 0)
(0.167858 -0.405453 0)
(0.0611628 -0.363477 0)
(0.0447906 -0.749962 0)
(-0.159695 -0.808771 0)
(-0.290451 -0.80315 0)
(-0.44151 -0.724344 0)
(-0.477041 -0.512474 0)
(-0.326581 -0.394453 0)
(-0.456403 -0.186272 0)
(-0.570694 -0.160881 0)
(-0.49421 -0.200012 0)
(-0.606007 -0.268054 0)
(-0.739965 -0.143827 0)
(-0.690661 -0.0478153 0)
(-0.696025 0.101095 0)
(-0.582108 0.169173 0)
(-0.531926 0.209173 0)
(-0.081282 -0.718208 0)
(-0.0860639 -0.5449 0)
(-0.061765 -0.431437 0)
(-0.0315672 -0.628946 0)
(0.102693 -0.45888 0)
(0.0580003 -0.425841 0)
(-0.0392677 -0.482744 0)
(0.0508812 -0.760674 0)
(0.0359737 -0.593644 0)
(-0.0627323 -0.707228 0)
(-0.180318 -0.606022 0)
(-0.333062 -0.516053 0)
(-0.308662 -0.40441 0)
(-0.205541 -0.359271 0)
(-0.352032 -0.319488 0)
(-0.474038 -0.206414 0)
(-0.537062 -0.177709 0)
(-0.600869 -0.206827 0)
(-0.614286 -0.0749705 0)
(-0.609817 -0.00424528 0)
(-0.605413 0.07497 0)
(-0.53637 0.118281 0)
(-0.531276 0.167366 0)
(-0.0648649 -0.415423 0)
(-0.0961487 -0.346962 0)
(0.0335981 -0.339283 0)
(-0.0147835 -0.32195 0)
(-0.0316083 -0.31256 0)
(0.0818115 -0.479714 0)
(0.0325367 -0.430852 0)
(-0.0312447 -0.487687 0)
(-0.0874412 -0.553088 0)
(-0.139983 -0.538596 0)
(-0.207173 -0.518554 0)
(-0.242649 -0.442006 0)
(-0.267836 -0.324541 0)
(-0.223418 -0.319133 0)
(-0.309626 -0.286804 0)
(-0.448031 -0.248849 0)
(-0.481675 -0.235321 0)
(-0.49064 -0.17817 0)
(-0.547184 -0.0666924 0)
(-0.540504 -0.0186054 0)
(-0.537862 0.0650585 0)
(-0.494468 0.124908 0)
(-0.480187 0.171638 0)
(0.0497848 -0.324764 0)
(0.0260296 -0.272526 0)
(-0.0145053 -0.235252 0)
(-0.0417561 -0.303415 0)
(-0.0745147 -0.267763 0)
(-0.0852001 -0.326568 0)
(0.00863095 -0.319593 0)
(0.0172112 -0.506694 0)
(-0.0550057 -0.418989 0)
(-0.106771 -0.465818 0)
(-0.14962 -0.495718 0)
(-0.199281 -0.470438 0)
(-0.211336 -0.408677 0)
(-0.161413 -0.365621 0)
(-0.191742 -0.380989 0)
(-0.380292 -0.322158 0)
(-0.487016 -0.18821 0)
(-0.434292 -0.132985 0)
(-0.444991 -0.0758315 0)
(-0.48555 -0.025313 0)
(-0.468062 0.0511093 0)
(-0.429161 0.0949551 0)
(-0.386722 0.136385 0)
(-0.00518418 -0.2203 0)
(-0.022025 -0.255515 0)
(-0.0177746 -0.257091 0)
(-0.0274187 -0.254966 0)
(-0.0421636 -0.249191 0)
(-0.0526787 -0.231464 0)
(-0.101825 -0.241015 0)
(-0.0918366 -0.290654 0)
(-0.0729882 -0.320755 0)
(-0.178306 -0.319175 0)
(-0.183012 -0.279512 0)
(-0.159343 -0.280245 0)
(-0.14802 -0.303278 0)
(-0.141095 -0.368048 0)
(-0.207779 -0.356712 0)
(-0.234197 -0.356268 0)
(-0.272035 -0.156662 0)
(-0.403158 -0.0837729 0)
(-0.427998 -0.0564314 0)
(-0.429249 -0.00926388 0)
(-0.416222 0.0403186 0)
(-0.404414 0.0841747 0)
(-0.358796 0.111515 0)
(0.00224751 -0.249087 0)
(-0.00795624 -0.246636 0)
(-0.0199926 -0.239775 0)
(-0.0311259 -0.244811 0)
(-0.0502931 -0.239681 0)
(-0.0527615 -0.245579 0)
(-0.0643725 -0.242989 0)
(-0.0743569 -0.220358 0)
(-0.0930803 -0.252881 0)
(-0.115657 -0.249645 0)
(-0.140929 -0.191065 0)
(-0.179711 -0.192045 0)
(-0.222326 -0.194428 0)
(-0.192136 -0.2207 0)
(-0.205065 -0.223797 0)
(-0.211167 -0.211939 0)
(-0.191258 -0.20066 0)
(-0.335695 -0.134234 0)
(-0.3785 -0.0342239 0)
(-0.387214 -0.0240414 0)
(-0.370387 0.0335842 0)
(-0.343746 0.0680619 0)
(-0.2853 0.0942763 0)
(-0.00162805 -0.225743 0)
(-0.0142368 -0.229003 0)
(-0.018692 -0.230684 0)
(-0.0283832 -0.226617 0)
(-0.0426151 -0.223763 0)
(-0.0528331 -0.215202 0)
(-0.0791877 -0.217931 0)
(-0.0877345 -0.226274 0)
(-0.09801 -0.221389 0)
(-0.118924 -0.213501 0)
(-0.122762 -0.17758 0)
(-0.16198 -0.179886 0)
(-0.18997 -0.19837 0)
(-0.186193 -0.191274 0)
(-0.205765 -0.199801 0)
(-0.208338 -0.171401 0)
(-0.218689 -0.197592 0)
(-0.189252 -0.119449 0)
(-0.304968 -0.036766 0)
(-0.37172 -0.0265653 0)
(-0.32719 0.0224477 0)
(-0.321208 0.0524951 0)
(-0.295321 0.0793059 0)
(0.000639546 -0.223765 0)
(-0.0134982 -0.224708 0)
(-0.0173916 -0.225624 0)
(-0.0219068 -0.223011 0)
(-0.0323402 -0.220788 0)
(-0.0390024 -0.212018 0)
(-0.063808 -0.206918 0)
(-0.0728453 -0.2072 0)
(-0.0811637 -0.204461 0)
(-0.0712368 -0.199418 0)
(-0.0882524 -0.187052 0)
(-0.195304 -0.163357 0)
(-0.255237 -0.175507 0)
(-0.185529 -0.166017 0)
(-0.167573 -0.179305 0)
(-0.209976 -0.20227 0)
(-0.150112 -0.146233 0)
(-0.143437 -0.111902 0)
(-0.247178 -0.127518 0)
(-0.320354 0.00026942 0)
(-0.303893 0.00591126 0)
(-0.29268 0.0517608 0)
(-0.266629 0.0824254 0)
(-0.00176187 -0.215376 0)
(-0.0151443 -0.220206 0)
(-0.0176819 -0.213651 0)
(-0.0242707 -0.212695 0)
(-0.0335338 -0.205509 0)
(-0.0404554 -0.170954 0)
(-0.0695512 -0.170928 0)
(-0.0759432 -0.200216 0)
(-0.0848268 -0.203606 0)
(-0.0961091 -0.209982 0)
(-0.0802009 -0.200251 0)
(-0.136307 -0.21403 0)
(-0.19047 -0.169868 0)
(-0.184595 -0.128775 0)
(-0.215366 -0.180445 0)
(-0.185275 -0.124912 0)
(-0.136486 -0.140028 0)
(-0.164701 -0.111853 0)
(-0.147182 -0.105537 0)
(-0.249435 -0.00332533 0)
(-0.299306 0.00680373 0)
(-0.254646 0.0358735 0)
(-0.24884 0.0637317 0)
(-0.00167902 -0.212209 0)
(-0.00887644 -0.216263 0)
(-0.0108276 -0.210424 0)
(-0.0165057 -0.215539 0)
(0.000967996 -0.210628 0)
(-0.00627629 -0.217059 0)
(-0.101634 -0.208718 0)
(-0.0986875 -0.198898 0)
(-0.0893366 -0.177197 0)
(-0.0684534 -0.1901 0)
(-0.0957852 -0.172652 0)
(-0.146531 -0.194659 0)
(-0.17475 -0.152745 0)
(-0.204686 -0.143443 0)
(-0.156533 -0.129929 0)
(-0.170775 -0.0896227 0)
(-0.155861 -0.118934 0)
(-0.115169 -0.105688 0)
(-0.136009 -0.0673676 0)
(-0.177711 -0.0906981 0)
(-0.255645 0.0257894 0)
(-0.240779 0.0217335 0)
(-0.223642 0.0613083 0)
(-0.00326648 -0.204295 0)
(-0.0119136 -0.20748 0)
(-0.018698 -0.20626 0)
(-0.0256006 -0.214186 0)
(-0.0366273 -0.211535 0)
(-0.0399347 -0.250924 0)
(-0.0507437 -0.254339 0)
(-0.0530637 -0.221232 0)
(-0.0707435 -0.258748 0)
(-0.0977503 -0.228206 0)
(-0.0832568 -0.243318 0)
(-0.0892679 -0.179657 0)
(-0.146125 -0.133487 0)
(-0.164403 -0.133309 0)
(-0.168225 -0.0962567 0)
(-0.172337 -0.144942 0)
(-0.155284 -0.0841265 0)
(-0.106973 -0.0958311 0)
(-0.116393 -0.0677813 0)
(-0.128087 -0.0702072 0)
(-0.19981 0.0109982 0)
(-0.23269 0.0205545 0)
(-0.192102 0.0542384 0)
(-0.00321039 -0.197537 0)
(-0.00748534 -0.201058 0)
(-0.0149111 -0.197057 0)
(-0.020535 -0.203853 0)
(-0.024358 -0.201208 0)
(-0.0405087 -0.239066 0)
(-0.0920035 -0.207201 0)
(-0.10022 -0.187582 0)
(-0.0754224 -0.186341 0)
(-0.0487865 -0.162446 0)
(-0.0558032 -0.169352 0)
(-0.0532723 -0.148822 0)
(-0.127321 -0.120476 0)
(-0.168784 -0.125184 0)
(-0.173823 -0.107188 0)
(-0.149792 -0.0891461 0)
(-0.106839 -0.0772595 0)
(-0.0997302 -0.080668 0)
(-0.113238 -0.0861646 0)
(-0.100081 -0.0378868 0)
(-0.142489 -0.0512122 0)
(-0.19113 0.043189 0)
(-0.181558 0.0408526 0)
(-0.00389316 -0.194449 0)
(-0.00912862 -0.197117 0)
(-0.0199655 -0.192249 0)
(-0.0296185 -0.199617 0)
(-0.0610772 -0.188372 0)
(-0.0377946 -0.190794 0)
(-0.00768095 -0.182223 0)
(-0.0418936 -0.135377 0)
(-0.0392885 -0.120898 0)
(-0.0630098 -0.140476 0)
(-0.073075 -0.143342 0)
(-0.0649176 -0.142148 0)
(-0.124335 -0.152437 0)
(-0.151414 -0.115015 0)
(-0.137908 -0.1042 0)
(-0.1455 -0.0698547 0)
(-0.145719 -0.0836813 0)
(-0.114403 -0.0688071 0)
(-0.0719543 -0.0638018 0)
(-0.0816752 -0.049126 0)
(-0.100265 -0.0555345 0)
(-0.151229 0.00121647 0)
(-0.179298 0.0463764 0)
(-0.00414416 -0.190825 0)
(-0.0024739 -0.191996 0)
(-0.0154438 -0.187109 0)
(-0.0120811 -0.181414 0)
(-0.0215083 -0.131914 0)
(-0.0245417 -0.143355 0)
(-0.0154255 -0.159286 0)
(-0.0535832 -0.177293 0)
(-0.077087 -0.158332 0)
(-0.0762653 -0.166426 0)
(-0.0656615 -0.158591 0)
(-0.0586731 -0.161091 0)
(-0.0845086 -0.154061 0)
(-0.117882 -0.118623 0)
(-0.122229 -0.103718 0)
(-0.14442 -0.0828215 0)
(-0.102309 -0.0673421 0)
(-0.0809385 -0.0437239 0)
(-0.0927492 -0.0530489 0)
(-0.0922789 -0.043217 0)
(-0.103682 -0.0268081 0)
(-0.0906249 -0.0243275 0)
(-0.137718 0.0444566 0)
(-0.00243825 -0.189417 0)
(-0.00147079 -0.189748 0)
(-0.0145638 -0.192693 0)
(0.0156629 -0.184387 0)
(-0.0228839 -0.195853 0)
(-0.059496 -0.179714 0)
(-0.0495672 -0.189728 0)
(-0.0343346 -0.196667 0)
(-0.0332097 -0.175392 0)
(-0.0620107 -0.163335 0)
(-0.0640724 -0.171746 0)
(-0.062513 -0.139404 0)
(-0.079881 -0.124248 0)
(-0.103258 -0.0965843 0)
(-0.104245 -0.0962167 0)
(-0.108648 -0.07554 0)
(-0.108712 -0.0481581 0)
(-0.105655 -0.0709192 0)
(-0.0731229 -0.0421354 0)
(-0.0568619 -0.0374569 0)
(-0.0811522 -0.0129855 0)
(-0.0600146 0.00489826 0)
(-0.109126 0.0143953 0)
(-0.00179397 -0.185882 0)
(-0.00492778 -0.187215 0)
(-0.00928933 -0.191212 0)
(-0.0120199 -0.18393 0)
(-0.0142722 -0.224525 0)
(-0.0240295 -0.182823 0)
(-0.0324854 -0.176173 0)
(-0.0397426 -0.158324 0)
(-0.0514329 -0.167131 0)
(-0.0687393 -0.130698 0)
(-0.036515 -0.136292 0)
(-0.0125092 -0.138812 0)
(-0.047108 -0.131224 0)
(-0.0939534 -0.112517 0)
(-0.108411 -0.0975153 0)
(-0.0944114 -0.0802532 0)
(-0.104835 -0.0612857 0)
(-0.0698251 -0.0568588 0)
(-0.0607416 -0.0237952 0)
(-0.0600328 -0.0270726 0)
(-0.0597752 -0.0129629 0)
(-0.0532286 0.0032406 0)
(-0.0733503 0.00183881 0)
(-0.00171775 -0.185275 0)
(-0.00518823 -0.185585 0)
(-0.0097464 -0.186832 0)
(-0.0096334 -0.175881 0)
(-0.0165637 -0.184285 0)
(-0.0227914 -0.182522 0)
(-0.023738 -0.173409 0)
(-0.0262966 -0.173118 0)
(-0.00536601 -0.162513 0)
(-0.0271574 -0.149622 0)
(-0.0644689 -0.123682 0)
(-0.0596781 -0.136769 0)
(-0.0574089 -0.140286 0)
(-0.0645421 -0.127316 0)
(-0.0716877 -0.0965397 0)
(-0.0711122 -0.0790087 0)
(-0.0874341 -0.0617954 0)
(-0.0666745 -0.0363861 0)
(-0.0434433 -0.0436018 0)
(-0.0480858 -0.0155784 0)
(-0.0529185 -0.0133909 0)
(-0.0416619 0.00724971 0)
(-0.0632219 -0.00611869 0)
(-0.000261501 -0.182336 0)
(-0.00404738 -0.184935 0)
(-0.00102358 -0.185683 0)
(-0.010737 -0.175288 0)
(-0.0189278 -0.188247 0)
(-0.0190346 -0.185421 0)
(-0.0255317 -0.221933 0)
(-0.0283672 -0.177003 0)
(-0.033377 -0.16666 0)
(-0.0279096 -0.183244 0)
(-0.022502 -0.151026 0)
(-0.0361722 -0.140476 0)
(-0.0331313 -0.124878 0)
(-0.0483665 -0.108069 0)
(-0.0581589 -0.0904034 0)
(-0.0565121 -0.0720134 0)