/*--------------------------------*- C++ -*----------------------------------*\
| =========                 |                                                 |
| \\      /  F ield         | foam-extend: Open Source CFD                    |
|  \\    /   O peration     | Version:     4.1                                |
|   \\  /    A nd           | Web:         http://www.foam-extend.org         |
|    \\/     M anipulation  |                                                 |
\*---------------------------------------------------------------------------*/
FoamFile
{
    version     2.0;
    format      ascii;
    class       volVectorField;
    location    "0.15";
    object      U_0;
}
// * * * * * * * * * * * * * * * * * * * * * * * * * * * * * * * * * * * * * //

dimensions      [0 1 -1 0 0 0 0];

internalField   nonuniform List<vector> 
2268
(
(0.00695101 -0.00820518 0)
(0.0550059 -0.00654318 0)
(0.107035 -0.00688299 0)
(0.173914 -0.00758933 0)
(0.223902 -0.00736264 0)
(0.318493 -0.0119314 0)
(0.380555 -0.00230366 0)
(0.428274 -0.0158126 0)
(0.6511 -0.0094726 0)
(0.650618 -0.0538932 0)
(0.672439 -0.0237887 0)
(0.879616 -0.105344 0)
(1.3616 -0.0293975 0)
(1.46985 -0.0165175 0)
(1.6171 0.190361 0)
(1.60245 0.116781 0)
(1.41812 0.105295 0)
(0.923777 0.0386581 0)
(0.855418 -0.0240864 0)
(0.817063 -0.0419714 0)
(0.787113 0.00736724 0)
(0.614687 -0.00276122 0)
(0.522666 0.218911 0)
(0.00796559 -0.0197764 0)
(0.0559534 -0.0181747 0)
(0.106885 -0.0200555 0)
(0.174037 -0.0218478 0)
(0.22294 -0.0252437 0)
(0.319961 -0.0285998 0)
(0.381692 -0.0455438 0)
(0.42516 -0.0550131 0)
(0.647276 -0.0592989 0)
(0.632692 -0.198732 0)
(0.680495 -0.1654 0)
(0.933806 -0.37575 0)
(1.30046 -0.196832 0)
(1.4748 -0.115044 0)
(1.59579 0.246948 0)
(1.53688 0.206854 0)
(1.15599 0.15041 0)
(0.3955 0.115876 0)
(0.201225 0.130828 0)
(0.30799 -0.252849 0)
(0.58508 -0.0625229 0)
(0.640465 0.292913 0)
(0.311345 0.513215 0)
(0.00883201 -0.0391327 0)
(0.0552705 -0.0315763 0)
(0.105636 -0.0339587 0)
(0.171846 -0.0370492 0)
(0.221869 -0.0400856 0)
(0.306989 -0.0511525 0)
(0.375285 -0.039787 0)
(0.426224 -0.0895433 0)
(0.591707 -0.0758539 0)
(0.566173 -0.243708 0)
(0.684889 -0.239393 0)
(0.769955 -0.598898 0)
(1.02472 -0.496733 0)
(1.25825 -0.118646 0)
(1.62505 0.487401 0)
(1.54142 0.434805 0)
(0.967464 0.32886 0)
(0.228478 0.282261 0)
(0.176263 0.0662552 0)
(0.644532 -0.376949 0)
(0.70464 -0.29741 0)
(0.893823 0.197771 0)
(0.582175 0.662701 0)
(0.012643 -0.045352 0)
(0.0593453 -0.0414526 0)
(0.104348 -0.0460831 0)
(0.170733 -0.0508932 0)
(0.218081 -0.0557022 0)
(0.317738 -0.0702536 0)
(0.380223 -0.0300159 0)
(0.418324 -0.10788 0)
(0.551784 -0.106057 0)
(0.528931 -0.230043 0)
(0.572856 -0.249191 0)
(0.357924 -0.630695 0)
(0.284411 -0.327472 0)
(0.56086 -0.0876147 0)
(1.34612 0.545401 0)
(1.30866 0.484015 0)
(0.941976 0.445313 0)
(0.527628 0.24927 0)
(0.735733 -0.0829584 0)
(1.07576 -0.38332 0)
(0.729785 -0.188514 0)
(0.79303 0.34385 0)
(0.542877 0.7666 0)
(0.0115317 -0.0794494 0)
(0.056944 -0.0563123 0)
(0.101065 -0.0599453 0)
(0.166804 -0.0662497 0)
(0.215333 -0.074301 0)
(0.329577 -0.092622 0)
(0.35463 -0.0720425 0)
(0.408153 -0.137781 0)
(0.499361 -0.0887782 0)
(0.517796 -0.24171 0)
(0.466559 -0.259425 0)
(0.268355 -0.418195 0)
(-0.0839274 -0.314169 0)
(-0.439244 -0.403055 0)
(0.990944 0.429205 0)
(1.07093 0.443953 0)
(1.09299 0.548075 0)
(1.00108 0.393327 0)
(1.02912 -0.0103597 0)
(1.26746 -0.223737 0)
(0.674485 -0.0791641 0)
(0.70937 0.424671 0)
(0.532407 0.929632 0)
(0.0244624 -0.0628046 0)
(0.0680107 -0.0631182 0)
(0.0992354 -0.0701302 0)
(0.163224 -0.0788024 0)
(0.209412 -0.0929842 0)
(0.325277 -0.106462 0)
(0.327638 -0.138054 0)
(0.407053 -0.154402 0)
(0.435088 -0.155891 0)
(0.440152 -0.20627 0)
(0.437302 -0.326514 0)
(0.326488 -0.286673 0)
(-0.204129 -0.322798 0)
(-0.595491 -0.434956 0)
(0.446883 0.0770044 0)
(0.707802 0.281266 0)
(0.978128 0.555604 0)
(0.645698 0.284395 0)
(0.641925 0.0359206 0)
(0.749807 -0.14219 0)
(0.497621 -0.0362346 0)
(0.682167 0.4193 0)
(0.460047 1.02155 0)
(0.0129162 -0.0438731 0)
(0.054018 -0.0777194 0)
(0.0932606 -0.0826586 0)
(0.156262 -0.0955547 0)
(0.199147 -0.111946 0)
(0.303431 -0.1247 0)
(0.30726 -0.131744 0)
(0.412542 -0.192529 0)
(0.434211 -0.252071 0)
(0.413786 -0.216629 0)
(0.397041 -0.241811 0)
(0.401138 -0.224495 0)
(-0.0229538 -0.127447 0)
(-0.577438 -0.364116 0)
(-0.725558 -0.2612 0)
(-0.0651846 0.201986 0)
(0.303307 0.557251 0)
(0.15413 0.290105 0)
(0.283262 -0.121662 0)
(0.641012 -0.0996999 0)
(0.706997 0.0939622 0)
(0.645555 0.445444 0)
(0.456015 1.15293 0)
(0.00836993 -0.072232 0)
(0.04949 -0.0771337 0)
(0.0892716 -0.0915173 0)
(0.147992 -0.102123 0)
(0.18708 -0.125022 0)
(0.297142 -0.138334 0)
(0.277791 -0.195336 0)
(0.338818 -0.179065 0)
(0.416867 -0.262976 0)
(0.423313 -0.206832 0)
(0.398904 -0.18502 0)
(0.361379 -0.125949 0)
(-0.180218 0.16504 0)
(-0.425921 -0.159519 0)
(-0.588787 -0.219233 0)
(-1.04703 -0.0569203 0)
(-0.283457 0.316619 0)
(0.310614 0.1122 0)
(0.477745 -0.234686 0)
(0.524358 -0.268962 0)
(0.612543 0.096079 0)
(0.582454 0.618584 0)
(0.429897 1.36603 0)
(-0.00350851 -0.00525342 0)
(0.0173281 -0.023724 0)
(0.055219 -0.00838744 0)
(0.0913286 -0.00619161 0)
(0.107143 -0.00370468 0)
(0.112723 -0.00127131 0)
(0.118528 0.000289619 0)
(0.11895 0.000249553 0)
(0.117284 0.000501 0)
(0.114839 0.00145858 0)
(0.107691 -0.00204117 0)
(0.116914 -0.010596 0)
(0.134041 0.0171852 0)
(0.119459 0.00308242 0)
(0.0832566 0.00313444 0)
(0.0647033 0.00210742 0)
(0.0440336 0.00200039 0)
(0.0264173 0.00188074 0)
(0.00845701 0.00182928 0)
(-0.00949803 -0.00520719 0)
(0.0165963 -0.0248841 0)
(0.0664627 -0.0236765 0)
(0.0988935 -0.0164 0)
(0.115705 -0.0118116 0)
(0.121811 -0.00532992 0)
(0.126344 -0.00198252 0)
(0.126383 5.07889e-05 0)
(0.124557 0.00378386 0)
(0.120842 0.00579342 0)
(0.108504 0.00335445 0)
(0.130815 -0.000437928 0)
(0.152286 0.0311347 0)
(0.117333 0.00903944 0)
(0.0882204 0.00846037 0)
(0.067779 0.00657986 0)
(0.0463455 0.00623202 0)
(0.027768 0.00589235 0)
(0.00890506 0.00573094 0)
(-0.00825921 -0.0117213 0)
(0.0102941 -0.0321263 0)
(0.0631492 -0.0432743 0)
(0.101369 -0.0277939 0)
(0.118166 -0.0205092 0)
(0.124439 -0.0053327 0)
(0.128013 -0.00248027 0)
(0.128773 0.00071814 0)
(0.127077 0.00638388 0)
(0.120069 0.0149287 0)
(0.113619 -0.00800665 0)
(0.13086 0.0491197 0)
(0.150039 0.026308 0)
(0.116777 0.0162478 0)
(0.0884301 0.0139706 0)
(0.06747 0.0112788 0)
(0.0462352 0.0105678 0)
(0.0276891 0.0100086 0)
(0.00888879 0.00973309 0)
(-0.0119225 -0.00149407 0)
(0.00652067 -0.0541009 0)
(0.0677243 -0.0630171 0)
(0.107063 -0.0400536 0)
(0.124754 -0.0286973 0)
(0.12971 -0.0143175 0)
(0.128863 -0.00305505 0)
(0.130061 -0.000907688 0)
(0.130606 0.0128728 0)
(0.113052 0.0171963 0)
(0.127627 0.00482057 0)
(0.15037 0.0696783 0)
(0.140299 0.0334469 0)
(0.108746 0.0224834 0)
(0.0868277 0.0189764 0)
(0.0664942 0.0158342 0)
(0.0458968 0.0147853 0)
(0.0274987 0.0140428 0)
(0.00884199 0.0136584 0)
(-0.0162167 -0.0123586 0)
(0.000229575 -0.068179 0)
(0.0682647 -0.0861109 0)
(0.113462 -0.0528012 0)
(0.128344 -0.0375133 0)
(0.135437 -0.0223245 0)
(0.13245 -0.00182409 0)
(0.13564 0.000901429 0)
(0.133807 0.0229242 0)
(0.11811 0.000982727 0)
(0.129728 0.0594797 0)
(0.148878 0.0541866 0)
(0.135622 0.0356284 0)
(0.107722 0.0278357 0)
(0.0854407 0.023237 0)
(0.065689 0.0202326 0)
(0.0454818 0.0189464 0)
(0.0272649 0.0180685 0)
(0.0087798 0.0175843 0)
(0.0135721 0.0139482 0)
(0.027867 -0.0892953 0)
(0.0807208 -0.114562 0)
(0.122875 -0.0656074 0)
(0.136675 -0.0447216 0)
(0.145234 -0.0219407 0)
(0.136668 -0.000755049 0)
(0.14155 -0.00428765 0)
(0.130351 0.0292766 0)
(0.129738 0.0427128 0)
(0.151502 0.0797633 0)
(0.139624 0.0664153 0)
(0.127046 0.0412178 0)
(0.10467 0.0336917 0)
(0.0836964 0.0278612 0)
(0.0646849 0.0245915 0)
(0.0449807 0.0230497 0)
(0.026988 0.0220443 0)
(0.00870513 0.0214644 0)
(0.0643454 -0.0421648 0)
(0.0662886 -0.093688 0)
(0.102425 -0.12509 0)
(0.136243 -0.079741 0)
(0.144088 -0.054537 0)
(0.154864 -0.0228133 0)
(0.137212 0.00520513 0)
(0.149494 0.00681711 0)
(0.15681 0.0371201 0)
(0.129658 0.0760571 0)
(0.142031 0.0682795 0)
(0.135924 0.063499 0)
(0.120293 0.0440285 0)
(0.102054 0.0370104 0)
(0.0815757 0.0318857 0)
(0.0636538 0.0286825 0)
(0.0444012 0.0270499 0)
(0.0266741 0.0259596 0)
(0.00861717 0.0253009 0)
(-0.0239451 -0.0406738 0)
(0.0719735 -0.112657 0)
(0.104288 -0.1388 0)
(0.147258 -0.0819887 0)
(0.153906 -0.0610736 0)
(0.165068 -0.0150791 0)
(0.140721 0.00704442 0)
(0.155015 0.04217 0)
(0.155511 0.0392862 0)
(0.137858 0.0622657 0)
(0.145896 0.0691328 0)
(0.128916 0.0783055 0)
(0.117866 0.048648 0)
(0.100139 0.0427984 0)
(0.0801332 0.0360835 0)
(0.0626379 0.0328152 0)
(0.0438256 0.0310584 0)
(0.0263428 0.0298879 0)
(0.00852386 0.0291485 0)
(0.012946 -0.0668755 0)
(0.0459213 -0.0997716 0)
(0.0662832 -0.113214 0)
(0.125134 -0.136825 0)
(0.168782 -0.179266 0)
(0.239641 -0.176085 0)
(0.284241 -0.241351 0)
(0.342377 -0.20384 0)
(0.41124 -0.273383 0)
(0.465158 -0.241275 0)
(0.510577 -0.225186 0)
(0.632161 -0.13727 0)
(0.709198 -0.0335425 0)
(1.07922 0.119209 0)
(1.6807 -0.138554 0)
(1.53019 -0.260767 0)
(1.44105 -0.0693719 0)
(1.12681 0.0619271 0)
(0.993201 -0.168737 0)
(0.806741 -0.332995 0)
(0.803527 -0.0924835 0)
(0.642267 0.535837 0)
(0.52691 1.56989 0)
(-0.0273845 -0.13814 0)
(0.0112421 -0.1127 0)
(0.0521366 -0.162932 0)
(0.0841795 -0.208226 0)
(0.147631 -0.191087 0)
(0.249563 -0.232497 0)
(0.264434 -0.252568 0)
(0.31069 -0.273322 0)
(0.442842 -0.335418 0)
(0.492962 -0.305459 0)
(0.599825 -0.235987 0)
(0.537601 -0.217392 0)
(0.59794 -0.266135 0)
(0.878032 -0.0761656 0)
(1.04964 -0.172783 0)
(0.87641 -0.382972 0)
(0.879511 0.0623388 0)
(0.979839 0.455642 0)
(1.11948 0.193898 0)
(1.37269 0.206585 0)
(1.09614 0.746155 0)
(0.857293 0.80617 0)
(0.802622 1.4912 0)
(0.0407167 -0.21218 0)
(0.0227451 -0.207567 0)
(0.00914232 -0.167678 0)
(0.100092 -0.232037 0)
(0.172783 -0.181727 0)
(0.17856 -0.261206 0)
(0.252868 -0.287576 0)
(0.291316 -0.313447 0)
(0.396499 -0.393318 0)
(0.528291 -0.314833 0)
(0.582737 -0.401987 0)
(0.572629 -0.427023 0)
(0.740384 -0.521979 0)
(0.827936 -0.466299 0)
(0.947161 -0.244888 0)
(0.902954 -0.16423 0)
(0.851506 -0.131709 0)
(1.02093 -0.00257331 0)
(1.74695 -0.0718303 0)
(2.30855 -0.00976461 0)
(2.28447 0.333399 0)
(1.57406 0.656685 0)
(1.24348 0.941083 0)
(-0.00558168 -0.275379 0)
(0.0863695 -0.288969 0)
(0.0613681 -0.279748 0)
(0.0888966 -0.233818 0)
(0.0999597 -0.202387 0)
(0.143098 -0.253842 0)
(0.246934 -0.251472 0)
(0.247125 -0.357285 0)
(0.411008 -0.461381 0)
(0.400736 -0.544104 0)
(0.463822 -0.652153 0)
(0.575389 -0.729437 0)
(0.769167 -0.587212 0)
(0.90757 -0.386287 0)
(0.837197 -0.103466 0)
(0.712563 -0.0975746 0)
(0.639563 -0.177023 0)
(0.817403 -0.13801 0)
(1.34916 -0.249954 0)
(1.68723 -0.138975 0)
(1.77686 0.453189 0)
(1.36885 1.06709 0)
(1.26435 1.07503 0)
(0.0262619 -0.371178 0)
(0.0521879 -0.373604 0)
(0.105481 -0.398072 0)
(0.14499 -0.41708 0)
(0.137938 -0.428607 0)
(0.208603 -0.415481 0)
(0.184032 -0.4575 0)
(0.141885 -0.475635 0)
(0.28127 -0.484885 0)
(0.329471 -0.617383 0)
(0.401597 -0.658423 0)
(0.359177 -0.793245 0)
(0.377027 -0.590161 0)
(0.554069 -0.242238 0)
(0.674808 -0.277211 0)
(0.761203 -0.37756 0)
(0.946197 -0.455037 0)
(1.14641 -0.423624 0)
(1.23973 -0.428032 0)
(1.26442 -0.39345 0)
(1.38448 -0.173836 0)
(1.33233 0.628282 0)
(1.19605 0.965568 0)
(0.00165084 -0.421653 0)
(0.0388598 -0.432375 0)
(0.0365392 -0.451903 0)
(0.0888162 -0.488046 0)
(0.129774 -0.510738 0)
(0.156232 -0.51216 0)
(0.186693 -0.562223 0)
(0.207001 -0.548484 0)
(0.283347 -0.480646 0)
(0.270418 -0.573295 0)
(0.241189 -0.60792 0)
(0.013009 -0.612587 0)
(-0.214603 -0.355342 0)
(0.27439 -0.435617 0)
(0.483794 -0.504847 0)
(0.640729 -0.482779 0)
(0.823923 -0.411297 0)
(1.02176 -0.326956 0)
(0.946359 -0.26481 0)
(0.874803 0.00931432 0)
(0.930807 0.372445 0)
(0.859891 0.769409 0)
(0.894322 0.946167 0)
(0.0116194 -0.455981 0)
(0.0252403 -0.453365 0)
(0.0377928 -0.486258 0)
(0.0804686 -0.453451 0)
(0.100951 -0.517613 0)
(0.15535 -0.545039 0)
(0.174101 -0.583902 0)
(0.226143 -0.549032 0)
(0.23238 -0.577266 0)
(0.236127 -0.595103 0)
(0.26969 -0.559585 0)
(0.142513 -0.433224 0)
(0.226447 -0.650289 0)
(0.418376 -0.838499 0)
(0.581468 -0.746143 0)
(0.772226 -0.563915 0)
(0.852842 -0.518157 0)
(0.838189 -0.684898 0)
(0.860112 -0.708543 0)
(0.903465 -0.534254 0)
(0.923682 0.190317 0)
(0.658053 0.614123 0)
(0.513392 0.770756 0)
(0.0109843 -0.485697 0)
(0.00598885 -0.489389 0)
(0.042373 -0.493951 0)
(0.03151 -0.493117 0)
(0.0275452 -0.56375 0)
(0.10806 -0.469244 0)
(0.18619 -0.535348 0)
(0.220422 -0.565689 0)
(0.231955 -0.619539 0)
(0.291258 -0.605572 0)
(0.324919 -0.599142 0)
(0.356208 -0.538812 0)
(0.498429 -0.638338 0)
(0.608809 -0.82304 0)
(0.678669 -0.768735 0)
(0.822003 -0.66824 0)
(0.780856 -0.780619 0)
(0.654013 -0.874162 0)
(0.673115 -0.838483 0)
(0.6485 -0.489409 0)
(0.659483 0.380727 0)
(0.305395 0.718342 0)
(0.184744 0.795875 0)
(0.00121637 -0.497638 0)
(0.016489 -0.504979 0)
(0.0455073 -0.487085 0)
(-0.0244029 -0.518804 0)
(0.117107 -0.459605 0)
(0.158089 -0.499114 0)
(0.0907981 -0.494947 0)
(0.140686 -0.575419 0)
(0.20601 -0.62158 0)
(0.258027 -0.598801 0)
(0.281925 -0.727015 0)
(0.323157 -0.72951 0)
(0.445735 -0.730435 0)
(0.476817 -0.683347 0)
(0.526592 -0.640867 0)
(0.822326 -0.745883 0)
(0.787101 -0.967643 0)
(0.69463 -0.985547 0)
(0.580062 -0.892243 0)
(0.423469 -0.491537 0)
(0.220504 0.610961 0)
(0.0292523 0.903648 0)
(-0.0159544 0.860495 0)
(0.00658864 -0.520519 0)
(0.0187641 -0.516349 0)
(0.0314769 -0.486163 0)
(0.0695662 -0.483201 0)
(0.0532072 -0.387542 0)
(0.0606518 -0.596946 0)
(0.146365 -0.523934 0)
(0.124485 -0.612558 0)
(0.207638 -0.623614 0)
(0.164067 -0.683022 0)
(0.200352 -0.723492 0)
(0.103903 -0.761461 0)
(-0.035165 -0.790821 0)
(-0.0418557 -0.802224 0)
(-0.00884958 -0.593494 0)
(0.160428 -0.864368 0)
(-0.0824996 -0.601877 0)
(-0.186961 -0.463188 0)
(-0.239701 -0.38303 0)
(-0.357987 0.220475 0)
(-0.339633 0.74617 0)
(-0.241485 0.908721 0)
(-0.136532 0.880325 0)
(0.00868169 -0.546818 0)
(0.052426 -0.546587 0)
(0.0673379 -0.502716 0)
(0.145292 -0.55306 0)
(0.0494175 -0.604773 0)
(-0.0168909 -0.567606 0)
(0.0561642 -0.585953 0)
(0.0784895 -0.651581 0)
(0.0945388 -0.619166 0)
(0.0463605 -0.706618 0)
(0.17726 -0.648393 0)
(-0.078404 -0.523133 0)
(-0.257312 -0.699435 0)
(-0.196548 -0.757945 0)
(-0.127221 -0.610267 0)
(-0.0891555 -0.611183 0)
(-0.0792522 -0.75088 0)
(-0.0365018 -0.701535 0)
(-0.238206 -0.547225 0)
(-0.408021 0.137821 0)
(-0.37182 0.601723 0)
(-0.253723 0.748157 0)
(-0.166869 0.802256 0)
(0.00877301 -0.585623 0)
(0.0525963 -0.568357 0)
(0.00577116 -0.590431 0)
(0.0570861 -0.676178 0)
(0.0271898 -0.684661 0)
(0.0226556 -0.690343 0)
(0.0439467 -0.661165 0)
(0.0765046 -0.689168 0)
(0.0221503 -0.569706 0)
(-0.114328 -0.801004 0)
(0.178437 -0.638688 0)
(-0.0408056 -0.365801 0)
(-0.302559 -0.807779 0)
(-0.130972 -0.889124 0)
(-0.0912802 -0.856993 0)
(-0.0987455 -0.878638 0)
(-0.00337733 -0.7536 0)
(-0.0026253 -0.354792 0)
(-0.145518 -0.276989 0)
(-0.383093 0.0988953 0)
(-0.172282 0.531386 0)
(-0.135005 0.710709 0)
(-0.103018 0.764854 0)
(0.0229637 -0.599115 0)
(0.0418364 -0.5374 0)
(-0.0763026 -0.573818 0)
(0.0230693 -0.448327 0)
(0.00501816 -0.675719 0)
(-0.0222299 -0.47927 0)
(0.088533 -0.607932 0)
(0.00418153 -0.61867 0)
(-0.176117 -0.440592 0)
(-0.105833 -0.869981 0)
(0.0784795 -0.794173 0)
(-0.0249834 -0.13857 0)
(-0.202173 -0.898772 0)
(0.0348405 -0.793653 0)
(0.00640032 -0.664114 0)
(0.00553509 -0.713636 0)
(-0.0607438 -0.624907 0)
(-0.269534 -0.241879 0)
(-0.25971 0.362113 0)
(-0.187737 0.196506 0)
(-0.0258253 0.28198 0)
(-0.0384685 0.653879 0)
(-0.0830404 0.76095 0)
(0.0774027 -0.660296 0)
(0.0599356 -0.491115 0)
(0.0318406 -0.483655 0)
(-0.0398957 -0.365777 0)
(0.00953031 -0.40751 0)
(-0.00622994 -0.400391 0)
(0.0325201 -0.540108 0)
(-0.235107 -0.615256 0)
(-0.387472 -0.521476 0)
(0.207579 -1.03006 0)
(-0.0320589 -0.838419 0)
(0.0826738 0.219485 0)
(-0.0578456 -0.972763 0)
(0.0170919 -0.881475 0)
(0.0103374 -0.77844 0)
(0.0561566 -0.314853 0)
(-0.130346 -0.48264 0)
(0.0138784 -0.824673 0)
(0.107827 -0.533823 0)
(0.262433 -0.0606972 0)
(0.158949 0.409565 0)
(-0.0405526 0.803321 0)
(-0.117342 0.795211 0)
(0.0963416 -0.877654 0)
(0.0976504 -0.428237 0)
(0.0222311 -0.397472 0)
(0.0328716 -0.358945 0)
(0.000745663 -0.283326 0)
(-0.114761 -0.371655 0)
(-0.190303 -0.414328 0)
(-0.283169 -0.546941 0)
(-0.290622 -0.918924 0)
(0.232842 -1.10664 0)
(-0.115048 -0.732925 0)
(0.0361789 -0.00250288 0)
(0.239154 -0.890946 0)
(-0.221688 -0.994823 0)
(-0.501443 -0.591303 0)
(-0.592982 -0.61004 0)
(-0.576919 -1.08123 0)
(-0.0614533 -0.59506 0)
(0.109539 -0.196228 0)
(0.0765829 0.157206 0)
(0.0112856 0.595876 0)
(-0.233446 0.882575 0)
(-0.277825 0.824078 0)
(0.0439591 -1.06138 0)
(0.152632 -0.359812 0)
(0.0315474 -0.382774 0)
(0.0586142 -0.331445 0)
(0.0508705 -0.267487 0)
(-0.0841087 -0.350988 0)
(-0.228239 -0.137016 0)
(-0.337595 -0.242665 0)
(-0.0283575 -1.24143 0)
(-0.0793807 -1.10094 0)
(-0.185931 -0.702596 0)
(0.0185791 -0.413532 0)
(0.0228769 -0.55852 0)
(-0.310324 -0.389299 0)
(-0.492091 -0.786408 0)
(-0.673931 -1.18417 0)
(-0.660009 -1.18872 0)
(-0.536188 -0.721121 0)
(-0.436143 -0.261972 0)
(-0.415732 0.427908 0)
(-0.449707 0.703825 0)
(-0.709982 0.803151 0)
(-0.477602 0.809062 0)
(-0.190796 -1.17607 0)
(0.231757 -0.30279 0)
(0.148291 -0.174061 0)
(0.132611 -0.327203 0)
(-0.00698311 -0.191966 0)
(-0.104333 -0.356648 0)
(-0.155733 -0.14458 0)
(-0.165382 -0.327398 0)
(0.40116 -1.19613 0)
(-0.385704 -0.921229 0)
(-0.377059 -0.644959 0)
(-0.0924985 -0.259421 0)
(-0.113749 -0.441667 0)
(-0.511283 -0.847442 0)
(-0.522535 -0.881079 0)
(-0.797457 -0.696989 0)
(-0.845291 -0.696296 0)
(-0.712896 -0.496837 0)
(-0.958906 -0.268886 0)
(-1.21612 -0.0343703 0)
(-1.23102 0.496138 0)
(-0.969837 0.712447 0)
(-0.643972 0.642602 0)
(0.27656 -1.06608 0)
(0.309565 -0.459137 0)
(-0.0168866 0.155272 0)
(0.128881 -0.396859 0)
(0.108806 0.0188847 0)
(-0.322755 -0.0940211 0)
(-0.298939 -0.314839 0)
(-0.0414196 -0.880478 0)
(0.267913 -1.07722 0)
(-0.529059 -0.682788 0)
(-0.566257 -1.08352 0)
(-0.236021 -0.513389 0)
(-0.280124 -0.704899 0)
(-0.467718 -0.762057 0)
(-0.659519 -0.595794 0)
(-0.758852 -0.553056 0)
(-0.655287 -0.408834 0)
(-0.707518 -0.479778 0)
(-1.18915 -0.44371 0)
(-1.41609 -0.11644 0)
(-1.2513 0.462502 0)
(-0.900619 0.55976 0)
(-0.705452 0.502303 0)
(-0.369583 -0.949903 0)
(-0.304347 -0.0969019 0)
(-0.149423 0.0163801 0)
(0.208952 -0.652632 0)
(0.112458 0.168801 0)
(0.0593324 0.425358 0)
(-0.0643526 -0.430042 0)
(-0.242755 -0.727635 0)
(-0.255937 -0.640313 0)
(-0.581303 -0.994945 0)
(-0.552144 -0.98757 0)
(-0.306893 -0.507044 0)
(-0.475538 -0.58004 0)
(-0.579546 -0.688472 0)
(-0.705525 -0.619696 0)
(-0.648284 -0.262701 0)
(-0.713869 -0.142945 0)
(-0.86501 -0.242322 0)
(-0.833923 -0.282816 0)
(-0.903834 -0.00559067 0)
(-1.07822 0.082931 0)
(-0.955136 0.368464 0)
(-0.676993 0.399973 0)
(-0.12055 -0.780391 0)
(-0.0975608 -0.279215 0)
(-0.21314 -0.386677 0)
(-0.327284 -0.575087 0)
(-0.301083 0.340763 0)
(0.0469616 0.189029 0)
(0.241964 -0.0580324 0)
(0.146151 -0.793204 0)
(-0.163525 -1.16167 0)
(-0.202335 -1.00839 0)
(-0.466125 -0.839483 0)
(-0.512464 -0.432358 0)
(-0.609753 -0.434567 0)
(-0.642636 -0.420419 0)
(-0.493337 -0.361566 0)
(-0.451625 -0.302084 0)
(-0.670306 -0.153135 0)
(-0.845472 -0.0308859 0)
(-0.908166 0.00209851 0)
(-0.966918 -0.0391723 0)
(-0.705718 0.0164724 0)
(-0.645523 0.283339 0)
(-0.516269 0.315786 0)
(-0.105115 -1.29795 0)
(-0.0465152 -0.211455 0)
(-0.097484 0.0589237 0)
(-0.106392 -0.554499 0)
(-0.188567 -0.219109 0)
(0.0138066 -0.161888 0)
(0.133417 -0.359852 0)
(0.00913941 -0.448499 0)
(-0.152245 -0.827382 0)
(-0.211379 -0.9589 0)
(-0.442662 -0.780792 0)
(-0.642231 -0.543313 0)
(-0.64217 -0.385765 0)
(-0.531973 -0.298506 0)
(-0.573287 -0.201267 0)
(-0.509354 -0.264854 0)
(-0.510992 -0.280872 0)
(-0.740629 -0.161424 0)
(-0.816012 -0.11339 0)
(-0.739981 0.0541569 0)
(-0.772525 0.188624 0)
(-0.657114 0.209242 0)
(-0.554056 0.22284 0)
(-0.0811524 -0.582479 0)
(-0.0891412 -0.248999 0)
(-0.060425 -0.312565 0)
(-0.0134863 -0.390833 0)
(-0.253759 -0.211277 0)
(0.0514006 -0.157989 0)
(0.166888 -0.401486 0)
(0.062709 -0.357647 0)
(0.0443561 -0.743281 0)
(-0.15916 -0.803225 0)
(-0.296845 -0.798209 0)
(-0.442541 -0.717761 0)
(-0.478016 -0.506972 0)
(-0.325859 -0.390405 0)
(-0.453123 -0.18531 0)
(-0.568065 -0.160294 0)
(-0.493405 -0.197291 0)
(-0.599287 -0.26395 0)
(-0.731066 -0.137977 0)
(-0.68394 -0.0460988 0)
(-0.688471 0.100984 0)
(-0.575407 0.168451 0)
(-0.525655 0.208432 0)
(-0.0822533 -0.704323 0)
(-0.0855085 -0.527236 0)
(-0.0583053 -0.409629 0)
(-0.022144 -0.596501 0)
(0.118534 -0.447446 0)
(0.0668258 -0.430582 0)
(-0.0395979 -0.486552 0)
(0.0530546 -0.766833 0)
(0.0395161 -0.590485 0)
(-0.0621619 -0.708349 0)
(-0.178862 -0.608085 0)
(-0.331775 -0.514721 0)
(-0.306505 -0.401122 0)
(-0.202972 -0.354652 0)
(-0.349708 -0.316932 0)
(-0.471045 -0.203563 0)
(-0.531906 -0.174614 0)
(-0.59516 -0.201238 0)
(-0.607332 -0.0737738 0)
(-0.604494 -0.00352288 0)
(-0.599112 0.0755164 0)
(-0.530515 0.11847 0)
(-0.525001 0.16679 0)
(-0.063052 -0.405118 0)
(-0.0941037 -0.335364 0)
(0.0356136 -0.327672 0)
(-0.0105991 -0.312535 0)
(-0.0243924 -0.30587 0)
(0.0881026 -0.480586 0)
(0.0355107 -0.429388 0)
(-0.0288266 -0.484384 0)
(-0.0842596 -0.55055 0)
(-0.136297 -0.536461 0)
(-0.204907 -0.515201 0)
(-0.240849 -0.438968 0)
(-0.266099 -0.321572 0)
(-0.222113 -0.316537 0)
(-0.306912 -0.283569 0)
(-0.44442 -0.245613 0)
(-0.478344 -0.232554 0)
(-0.48612 -0.174901 0)
(-0.542714 -0.0667244 0)
(-0.535359 -0.0175721 0)
(-0.53178 0.0645512 0)
(-0.488575 0.12448 0)
(-0.474323 0.170721 0)
(0.04965 -0.317219 0)
(0.0265271 -0.265308 0)
(-0.0120107 -0.22908 0)
(-0.0374387 -0.296983 0)
(-0.070264 -0.263004 0)
(-0.0812025 -0.323402 0)
(0.0122976 -0.317684 0)
(0.0195429 -0.505214 0)
(-0.0527175 -0.417232 0)
(-0.104777 -0.464879 0)
(-0.148245 -0.493681 0)
(-0.197323 -0.467734 0)
(-0.209592 -0.405722 0)
(-0.159904 -0.362383 0)
(-0.191348 -0.376475 0)
(-0.377892 -0.320392 0)
(-0.481944 -0.185478 0)
(-0.431836 -0.132599 0)
(-0.440856 -0.0742946 0)
(-0.479337 -0.0244984 0)
(-0.463184 0.0512422 0)
(-0.424063 0.094852 0)
(-0.382332 0.135642 0)
(-0.00499668 -0.214834 0)
(-0.021286 -0.249579 0)
(-0.0156562 -0.251288 0)
(-0.0242197 -0.250241 0)
(-0.0386276 -0.245261 0)
(-0.0492934 -0.228436 0)
(-0.0989712 -0.238618 0)
(-0.0892641 -0.288341 0)
(-0.070352 -0.318593 0)
(-0.175359 -0.317193 0)
(-0.180247 -0.278038 0)
(-0.15742 -0.278605 0)
(-0.146507 -0.301119 0)
(-0.139767 -0.364486 0)
(-0.205618 -0.354116 0)
(-0.231473 -0.351871 0)
(-0.27037 -0.154968 0)
(-0.399353 -0.082272 0)
(-0.423041 -0.0546617 0)
(-0.425123 -0.00863128 0)
(-0.411535 0.0405441 0)
(-0.399628 0.0839271 0)
(-0.354278 0.110925 0)
(0.00243008 -0.244193 0)
(-0.00732954 -0.241667 0)
(-0.0185678 -0.235085 0)
(-0.0289168 -0.240896 0)
(-0.0477175 -0.236375 0)
(-0.0501071 -0.243011 0)
(-0.0616499 -0.240915 0)
(-0.0718834 -0.218321 0)
(-0.0907593 -0.250976 0)
(-0.113275 -0.248127 0)
(-0.138765 -0.189894 0)
(-0.177486 -0.190601 0)
(-0.220112 -0.192999 0)
(-0.189683 -0.219212 0)
(-0.202948 -0.221868 0)
(-0.209343 -0.210097 0)
(-0.18883 -0.199047 0)
(-0.332767 -0.132028 0)
(-0.375006 -0.0329413 0)
(-0.38283 -0.0229487 0)
(-0.366634 0.0335929 0)
(-0.339791 0.0679063 0)
(-0.281578 0.0937377 0)
(-0.00142168 -0.22184 0)
(-0.0135684 -0.224906 0)
(-0.0175636 -0.226659 0)
(-0.0267107 -0.222958 0)
(-0.0407181 -0.220654 0)
(-0.0506821 -0.21246 0)
(-0.0769842 -0.215506 0)
(-0.0856607 -0.224152 0)
(-0.095938 -0.219584 0)
(-0.116794 -0.21189 0)
(-0.12084 -0.17626 0)
(-0.159524 -0.178354 0)
(-0.187587 -0.196938 0)
(-0.183873 -0.190032 0)
(-0.203729 -0.197944 0)
(-0.206152 -0.169937 0)
(-0.216684 -0.195727 0)
(-0.187343 -0.118877 0)
(-0.301207 -0.0354786 0)
(-0.368523 -0.0258342 0)
(-0.323906 0.0227149 0)
(-0.317613 0.0523384 0)
(-0.291627 0.0789735 0)
(0.000962175 -0.220228 0)
(-0.0126904 -0.221024 0)
(-0.0164153 -0.221949 0)
(-0.0206506 -0.219605 0)
(-0.0307764 -0.217765 0)
(-0.0373412 -0.209477 0)
(-0.0619524 -0.204699 0)
(-0.071003 -0.20503 0)
(-0.0793561 -0.202494 0)
(-0.069701 -0.197542 0)
(-0.0865609 -0.185474 0)
(-0.192881 -0.161602 0)
(-0.252986 -0.173903 0)
(-0.183244 -0.16458 0)
(-0.1659 -0.177601 0)
(-0.208043 -0.200425 0)
(-0.14828 -0.14501 0)
(-0.142286 -0.110618 0)
(-0.244387 -0.126647 0)
(-0.316918 0.000593675 0)
(-0.30064 0.00573123 0)
(-0.289416 0.0513704 0)
(-0.26339 0.0818914 0)
(-0.00144874 -0.211729 0)
(-0.0143936 -0.216678 0)
(-0.016794 -0.210266 0)
(-0.0232116 -0.209389 0)
(-0.0322812 -0.202619 0)
(-0.0390177 -0.168508 0)
(-0.0678256 -0.168735 0)
(-0.0742144 -0.19811 0)
(-0.0830837 -0.201403 0)
(-0.0945515 -0.207966 0)
(-0.0785979 -0.198178 0)
(-0.134363 -0.212241 0)
(-0.188329 -0.168269 0)
(-0.182401 -0.127342 0)
(-0.213293 -0.179063 0)
(-0.183489 -0.1231 0)
(-0.134698 -0.138858 0)
(-0.163062 -0.110512 0)
(-0.145499 -0.104464 0)
(-0.247006 -0.00280107 0)
(-0.295967 0.00744292 0)
(-0.251321 0.0357398 0)
(-0.245776 0.0633781 0)
(-0.00152004 -0.208637 0)
(-0.0083575 -0.212806 0)
(-0.0100484 -0.207221 0)
(-0.0156692 -0.212378 0)
(0.00188424 -0.207776 0)
(-0.00523799 -0.2141 0)
(-0.0999667 -0.206095 0)
(-0.096999 -0.196631 0)
(-0.0877262 -0.174952 0)
(-0.0669153 -0.187993 0)
(-0.0943648 -0.170759 0)
(-0.14494 -0.19277 0)
(-0.172468 -0.151177 0)
(-0.202605 -0.142023 0)
(-0.15437 -0.1288 0)
(-0.168871 -0.0884593 0)
(-0.15436 -0.118105 0)
(-0.113733 -0.10449 0)
(-0.134628 -0.066557 0)
(-0.175549 -0.0896573 0)
(-0.252746 0.0261287 0)
(-0.238426 0.0214568 0)
(-0.22102 0.0607984 0)
(-0.00311008 -0.201087 0)
(-0.0115598 -0.20427 0)
(-0.0181003 -0.203243 0)
(-0.0249161 -0.211108 0)
(-0.0357395 -0.208675 0)
(-0.038824 -0.247568 0)
(-0.0494493 -0.251378 0)
(-0.0516164 -0.218761 0)
(-0.0694445 -0.255933 0)
(-0.0963975 -0.225626 0)
(-0.0818969 -0.240887 0)
(-0.0881246 -0.178029 0)
(-0.144369 -0.132059 0)
(-0.162484 -0.13202 0)
(-0.166361 -0.0951303 0)
(-0.170761 -0.143876 0)
(-0.153515 -0.0830043 0)
(-0.105737 -0.094994 0)
(-0.115319 -0.0669734 0)
(-0.126499 -0.0696524 0)
(-0.197636 0.0109274 0)
(-0.229881 0.0206244 0)
(-0.189531 0.0537507 0)
(-0.00308386 -0.194594 0)
(-0.00724728 -0.198085 0)
(-0.0143298 -0.194196 0)
(-0.0199447 -0.200848 0)
(-0.0234918 -0.198524 0)
(-0.0394896 -0.235884 0)
(-0.0907635 -0.204622 0)
(-0.0989473 -0.185271 0)
(-0.0742155 -0.184535 0)
(-0.0477468 -0.160436 0)
(-0.0548612 -0.167346 0)
(-0.0519681 -0.147338 0)
(-0.125577 -0.119134 0)
(-0.166916 -0.123861 0)
(-0.17178 -0.106052 0)
(-0.14805 -0.088171 0)
(-0.105554 -0.0762295 0)
(-0.0986091 -0.0798602 0)
(-0.112002 -0.0850601 0)
(-0.0989794 -0.0373008 0)
(-0.140948 -0.0503592 0)
(-0.189076 0.0431175 0)
(-0.179553 0.0405188 0)
(-0.00379024 -0.191644 0)
(-0.0089361 -0.194308 0)
(-0.019385 -0.189478 0)
(-0.029138 -0.196667 0)
(-0.0602072 -0.18606 0)
(-0.0369838 -0.188451 0)
(-0.00716366 -0.17974 0)
(-0.0408052 -0.133453 0)
(-0.0383546 -0.119082 0)
(-0.0619413 -0.138753 0)
(-0.0721313 -0.141641 0)
(-0.0637608 -0.140517 0)
(-0.122842 -0.150822 0)
(-0.149809 -0.113635 0)
(-0.136245 -0.103072 0)
(-0.143896 -0.0690029 0)
(-0.144245 -0.0830554 0)
(-0.11315 -0.0680384 0)
(-0.0712126 -0.0631575 0)
(-0.0809236 -0.048571 0)
(-0.0989895 -0.0549124 0)
(-0.149115 0.000926763 0)
(-0.176966 0.0458966 0)
(-0.0040419 -0.188093 0)
(-0.00234835 -0.189226 0)
(-0.0147593 -0.184362 0)
(-0.0119939 -0.179002 0)
(-0.0210769 -0.129785 0)
(-0.0236447 -0.141205 0)
(-0.0150412 -0.157087 0)
(-0.0526501 -0.175126 0)
(-0.0761264 -0.156344 0)
(-0.0751549 -0.164565 0)
(-0.0646659 -0.156627 0)
(-0.0578011 -0.159175 0)
(-0.0833569 -0.152508 0)
(-0.11653 -0.117251 0)
(-0.120842 -0.102639 0)
(-0.142786 -0.0819055 0)
(-0.101117 -0.0665329 0)
(-0.0798572 -0.0431568 0)
(-0.0916698 -0.0525196 0)
(-0.0911149 -0.0426188 0)
(-0.102539 -0.0263914 0)
(-0.0896593 -0.0238931 0)
(-0.136023 0.0441228 0)
(-0.00237666 -0.186753 0)
(-0.00134172 -0.187077 0)
(-0.0141324 -0.190002 0)
(0.0157283 -0.182096 0)
(-0.0223643 -0.192871 0)
(-0.0586806 -0.177426 0)
(-0.0489138 -0.187335 0)
(-0.0336093 -0.194215 0)
(-0.0323949 -0.173268 0)
(-0.0610224 -0.1614 0)
(-0.0631724 -0.169694 0)
(-0.0616429 -0.137678 0)
(-0.0788353 -0.122869 0)
(-0.102015 -0.0953633 0)
(-0.102944 -0.0951612 0)
(-0.10737 -0.0746822 0)
(-0.107439 -0.047572 0)
(-0.104497 -0.0701952 0)
(-0.0722877 -0.0416877 0)
(-0.0561861 -0.0369839 0)
(-0.0802249 -0.012919 0)
(-0.0592748 0.00495953 0)
(-0.107662 0.0145363 0)
(-0.00174625 -0.183245 0)
(-0.0048007 -0.184558 0)
(-0.00902506 -0.188544 0)
(-0.0118232 -0.181573 0)
(-0.0139275 -0.221551 0)
(-0.0234261 -0.180432 0)
(-0.0319729 -0.173832 0)
(-0.0390183 -0.156136 0)
(-0.050802 -0.165092 0)
(-0.0678178 -0.129037 0)
(-0.0358647 -0.134541 0)
(-0.0123244 -0.137103 0)
(-0.0463218 -0.129775 0)
(-0.0928244 -0.111174 0)
(-0.107185 -0.0964123 0)
(-0.0932792 -0.0793542 0)
(-0.103651 -0.0605571 0)
(-0.0690404 -0.0562796 0)
(-0.0598999 -0.0234629 0)
(-0.0593555 -0.0267831 0)
(-0.0591142 -0.0128053 0)
(-0.0525793 0.00313599 0)
(-0.0724475 0.00200463 0)
(-0.0016613 -0.182665 0)
(-0.00505583 -0.182939 0)
(-0.00963258 -0.184224 0)
(-0.00940636 -0.173537 0)
(-0.0162041 -0.181657 0)
(-0.0223174 -0.180116 0)
(-0.0232771 -0.17098 0)
(-0.025836 -0.17093 0)
(-0.005028 -0.160492 0)
(-0.0266536 -0.147681 0)
(-0.0637655 -0.122073 0)
(-0.0590116 -0.135121 0)
(-0.0567166 -0.138608 0)
(-0.0638151 -0.125895 0)
(-0.0708507 -0.0953766 0)
(-0.07028 -0.0781093 0)
(-0.0864396 -0.0610257 0)
(-0.0658817 -0.0359478 0)
(-0.0428763 -0.0431911 0)
(-0.04751 -0.015478 0)
(-0.0522927 -0.0133229 0)
(-0.0410908 0.00708416 0)
(-0.0624535 -0.00600575 0)
(-0.000221537 -0.179682 0)
(-0.00393258 -0.182281 0)
(-0.000901872 -0.183111 0)
(-0.0104983 -0.17308 0)
(-0.0186162 -0.185749 0)
(-0.0186402 -0.182964 0)
(-0.0251485 -0.21916 0)
(-0.0280103 -0.174735 0)
(-0.0329635 -0.164553 0)
(-0.0274546 -0.180984 0)
(-0.0221493 -0.149206 0)
(-0.0356942 -0.138787 0)
(-0.0326739 -0.123386 0)
(-0.0478065 -0.10672 0)
(-0.057546 -0.089295 0)
(-0.0559107 -0.0711628 0)
(-0.0585662 -0.0560113 0)