/*--------------------------------*- C++ -*----------------------------------*\
| =========                 |                                                 |
| \\      /  F ield         | foam-extend: Open Source CFD                    |
|  \\    /   O peration     | Version:     4.1                                |
|   \\  /    A nd           | Web:         http://www.foam-extend.org         |
|    \\/     M anipulation  |                                                 |
\*---------------------------------------------------------------------------*/
FoamFile
{
    version     2.0;
    format      ascii;
    class       volScalarField;
    location    "0.25";
    object      pd;
}
// * * * * * * * * * * * * * * * * * * * * * * * * * * * * * * * * * * * * * //

dimensions      [1 -1 -2 0 0 0 0];

internalField   nonuniform List<scalar> 
2268
(
1317.04
1316.23
1312.61
1300.71
1298.09
1279.25
1271.61
1256.77
1232.85
1245.58
1205.43
1325.61
1254.69
1259.61
1262.14
1276.34
1295.11
1320.06
1369.39
1433.55
1510.74
1585.58
1633.71
1316.73
1315.92
1312.12
1300.56
1297.69
1278.42
1271.51
1255.74
1232.2
1254
1193.48
1309.43
1253.49
1257.13
1259.5
1274.14
1295.44
1322.35
1365.11
1423.26
1508.06
1577.76
1630.66
1316.06
1315.27
1311.24
1300.51
1296.53
1277.67
1270.41
1253.93
1230.77
1231.9
1237.89
1274.36
1242.99
1250.64
1252.84
1265.9
1287.31
1321.6
1365.46
1412.38
1490.35
1562.48
1601.8
1315.17
1314.34
1309.8
1300.09
1295
1275.58
1270.31
1249.55
1228.1
1272.91
1225.67
1251.34
1237.86
1243.85
1246.04
1261.37
1282.53
1313.96
1354.33
1401.85
1474.77
1543.82
1562.74
1313.83
1313.03
1308.14
1299.46
1293.62
1274.01
1268.13
1256.84
1221.57
1261.46
1226.8
1238.42
1228.67
1235.59
1238.63
1253.05
1273.72
1302.84
1348.79
1394.23
1454.13
1512.46
1510.93
1312.37
1311.48
1305.81
1298.37
1290.8
1272.83
1261.44
1241.63
1250.69
1251.26
1225.72
1226.34
1219.12
1224.48
1229.16
1243.54
1261.23
1291.03
1334.43
1377.48
1433.42
1483.09
1417.33
1310.28
1309.53
1303.47
1297.18
1289.4
1266.77
1273.18
1233.65
1248.68
1239.92
1222.54
1217.25
1209.46
1210.56
1218.88
1232.85
1245.6
1266.76
1321.68
1353
1405.32
1432.34
1265.35
1308.47
1307.52
1300.39
1292.4
1284.07
1272.31
1253.71
1247.84
1240.62
1230.88
1217.05
1206.56
1197.57
1197.15
1201.74
1218.97
1231.28
1251.82
1293.02
1329.93
1377.52
1304.68
1144.38
10.3809
10.417
10.3151
10.2973
10.2666
10.2379
10.2177
10.2045
10.1902
10.1853
10.1726
10.168
10.1403
10.1319
10.0747
10.0615
9.98762
9.97703
9.96048
10.3766
10.4227
10.3119
10.295
10.2672
10.2371
10.2146
10.2023
10.1886
10.1846
10.1729
10.1702
10.1407
10.137
10.0746
10.0525
9.98828
9.97558
9.95904
10.3601
10.4272
10.2951
10.2914
10.2679
10.2267
10.2103
10.1971
10.1853
10.183
10.1719
10.1656
10.1412
10.1425
10.0632
10.0523
9.98659
9.97249
9.95586
10.3249
10.4369
10.2729
10.2815
10.2577
10.226
10.2046
10.1877
10.1798
10.1802
10.1738
10.1685
10.1407
10.1461
10.0507
10.0552
9.98226
9.96782
9.95121
10.302
10.4405
10.2219
10.2551
10.2453
10.2144
10.1854
10.1821
10.1738
10.1795
10.1689
10.179
10.1346
10.142
10.0731
10.0315
9.97988
9.96129
9.94449
10.0806
10.3456
10.0438
10.1779
10.2742
10.1977
10.1739
10.1699
10.1627
10.1651
10.1881
10.1718
10.1447
10.1446
10.0524
10.0308
9.97531
9.95354
9.93632
11.8834
10.6278
9.85193
10.2385
10.2576
10.177
10.1497
10.1488
10.1521
10.1873
10.1807
10.1836
10.1527
10.147
10.0555
10.0224
9.96838
9.94391
9.92614
41.0817
12.4285
9.54311
10.1678
10.2622
10.1462
10.1089
10.1139
10.1325
10.165
10.1838
10.1806
10.1559
10.1453
10.0499
10.0142
9.96033
9.93278
9.91414
1303.55
1303.49
1292.65
1301.39
1284.86
1238.03
1272.3
1237.02
1232.08
1217.06
1202.48
1187.72
1178.02
1171.72
1178.23
1189.41
1193.73
1216.75
1271.11
1243.83
1354.77
987.989
940.37
1298.93
1296.93
1287.86
1268.54
1281.28
1256.99
1253.87
1236.42
1222.49
1200.42
1174.15
1152.16
1129.68
1148.87
1130.29
1174.03
1124.78
1199.48
1285.73
998.862
1087.34
934.761
1198.35
1289.71
1286.18
1281.37
1269.99
1269.89
1251.28
1249.59
1228.48
1213.19
1182.26
1150.67
1093.11
1063.51
1046.78
1078.07
1056.81
1012.38
1000.96
1038.71
985.33
1092.64
1044.04
1242.9
1275.62
1272.72
1270.65
1261.06
1260.16
1247.5
1241.63
1227.68
1204.91
1164.61
1089.71
853.405
756.797
877.638
819.09
587.006
437.482
445.817
574.662
772.674
941.735
1020.75
1059.64
1255.53
1252.57
1251.35
1243.51
1244.06
1232.71
1232.82
1224.15
1199.53
1103.95
773.742
259.648
145.994
216.132
145.509
48.4762
15.6259
27.677
74.4334
246.494
231.972
318.343
446.73
1069.6
1063.12
1064.69
1050.78
1058.09
1050.17
1071.81
1145.4
1075.06
623.073
126.699
20.3606
13.3755
5.98381
0.852773
-0.805382
-0.983554
0.0718088
2.72494
4.7519
1.93484
15.7841
36.2396
312.248
308.246
311.698
291.961
308.076
307.739
349.833
535.376
351.512
66.6567
6.19358
-0.0589475
0.167578
-0.846749
-1.33833
-1.34647
-1.30977
-1.30946
-1.72079
-1.77723
-1.82848
-1.50198
-1.83984
7.80151
8.33876
8.50057
7.70049
9.27947
11.2251
14.4984
23.7674
10.3868
1.63885
-0.100939
-0.874178
-0.905608
-1.14659
-1.54627
-1.76396
-1.7306
-1.59967
-1.94819
-2.18991
-2.01516
-1.93511
-2.00522
-1.02931
-1.00536
-0.979131
-1.00325
-0.928781
-0.812093
-0.668166
-0.761192
-1.01557
-1.38966
-1.03336
-1.14316
-1.29702
-1.27933
-1.74441
-2.35452
-2.4716
-2.09742
-1.90153
-1.70676
-0.461704
-2.5749
-3.79132
-1.26439
-1.25927
-1.24543
-1.26183
-1.2408
-1.24707
-1.23493
-1.25804
-1.16546
-1.43626
-1.18311
-1.3268
-1.024
-0.335024
-1.36111
-2.4901
-3.10188
-2.5164
-1.71205
-0.726729
-1.35046
-2.29536
-3.01155
-1.30261
-1.31407
-1.27809
-1.31094
-1.30977
-1.37533
-1.32529
-1.21281
-1.1319
-1.17207
-0.882985
-1.2319
-0.562862
-0.3048
-1.31811
-2.20713
-2.62162
-1.72547
-1.38097
-1.27468
-2.25532
-3.50107
-3.79913
-1.34753
-1.34283
-1.36896
-1.38533
-1.39314
-1.39663
-1.34826
-1.44163
-1.42105
-1.37283
-1.41871
-1.63985
-1.00643
-1.08529
-1.06154
-1.39777
-1.28417
-2.64797
-2.70219
-2.9234
-3.35974
-3.4666
-3.52749
-1.37956
-1.38674
-1.43386
-1.4405
-1.40733
-1.44244
-1.48463
-1.5887
-1.72497
-1.99382
-1.46149
-1.89595
-2.02441
-2.19672
-1.91929
-1.38813
-2.1972
-3.00054
-3.13165
-3.12357
-3.13146
-3.53235
-3.42892
-1.40535
-1.41091
-1.42816
-1.42373
-1.46889
-1.48934
-1.61969
-1.76864
-1.99325
-1.96626
-1.78179
-1.99281
-2.21391
-2.66703
-2.55192
-2.64931
-2.7765
-2.90907
-3.09177
-3.23547
-3.52857
-3.58522
-3.82445
-1.44306
-1.44782
-1.45338
-1.47479
-1.48083
-1.56173
-1.61804
-1.75161
-1.64153
-2.17852
-2.17216
-2.40569
-2.39177
-2.42688
-2.5835
-2.98712
-2.79649
-3.22124
-2.95042
-3.14729
-3.44919
-3.68027
-4.00761
-1.51342
-1.51639
-1.52003
-1.53582
-1.5618
-1.63063
-1.65345
-1.72132
-1.74477
-1.73273
-2.0776
-2.22391
-2.39728
-2.57047
-2.7919
-2.95778
-3.00003
-3.09037
-3.13738
-3.28592
-3.60044
-3.9924
-4.41632
-1.518
-1.53545
-1.55411
-1.54525
-1.51626
-1.60254
-1.69133
-1.75789
-1.78438
-1.86797
-2.09698
-2.23409
-2.40092
-2.51306
-2.68529
-2.50869
-2.89502
-3.1782
-3.23822
-3.39939
-3.71933
-4.15819
-4.6986
-1.37979
-1.42497
-1.49175
-1.50719
-1.74351
-1.52572
-1.64827
-1.75032
-1.79474
-1.90512
-2.10439
-2.29182
-2.43636
-2.53001
-2.53745
-2.48594
-2.81043
-2.84234
-3.11304
-3.47921
-3.84971
-4.25199
-5.11801
-1.92364
-1.94886
-1.56536
-2.03404
-1.92065
-2.09237
-2.08542
-1.82293
-1.99318
-2.13023
-2.17619
-2.41735
-2.46462
-2.48775
-2.39073
-2.82067
-2.96437
-2.99959
-3.24351
-3.45838
-3.97201
-4.74847
-5.15143
-1.96618
-1.99047
-2.15811
-2.03854
-2.07287
-2.16061
-2.11279
-2.36464
-2.23942
-2.22786
-2.23906
-2.48934
-2.18549
-2.87126
-2.92558
-2.95337
-2.96629
-3.0514
-3.20266
-3.45779
-4.01685
-4.81805
-5.75202
-2.00044
-2.01212
-2.04518
-2.05799
-2.10381
-2.1393
-2.20481
-2.533
-2.25079
-2.15976
-2.3371
-2.5059
-2.74269
-2.75897
-2.88924
-2.97479
-3.04856
-3.11941
-3.2139
-3.50213
-4.02863
-4.86584
-5.82233
-1.97008
-1.9747
-2.03588
-2.12368
-2.23761
-2.14414
-2.31665
-2.07918
-2.21403
-2.52877
-2.3727
-2.51648
-2.61083
-2.72013
-2.88886
-2.8846
-3.13748
-3.14169
-3.18771
-3.55186
-4.06509
-4.97181
-5.82609
-1.94959
-1.94404
-1.96872
-2.11347
-1.75988
-2.14137
-1.83016
-1.95049
-2.09901
-2.28959
-2.31948
-2.44612
-2.53447
-2.69862
-2.81161
-2.52308
-2.9838
-3.12099
-3.77742
-3.62166
-4.11252
-4.65101
-5.75124
-1.96916
-1.97297
-2.00094
-1.6732
-1.74308
-1.67344
-1.74921
-1.7816
-1.91608
-2.14394
-2.25084
-2.3552
-2.4456
-2.60544
-2.40568
-2.9724
-2.70278
-3.04142
-3.49123
-3.52172
-3.88079
-4.37447
-5.35609
-1.46838
-1.4565
-1.47726
-1.61672
-1.63987
-1.6602
-1.70285
-2.08083
-2.27692
-2.21124
-2.26337
-2.31089
-2.44821
-2.60167
-2.59345
-2.78288
-2.59667
-3.02859
-3.32381
-3.38068
-3.55259
-4.3909
-6.02948
-1.48002
-1.4755
-1.46182
-1.44739
-1.47287
-1.5967
-2.05374
-2.10931
-2.06441
-2.10614
-2.14347
-2.18596
-2.28035
-2.10045
-2.55842
-2.82997
-3.07454
-3.05483
-3.09291
-3.24555
-3.84971
-4.68173
-5.40365
-1.42524
-1.39102
-1.48922
-1.79239
-1.93349
-2.04776
-2.03636
-1.96768
-2.01245
-2.03936
-2.07777
-2.11258
-2.17696
-2.21221
-2.25689
-2.20528
-2.71262
-2.70863
-2.5246
-3.50334
-3.6756
-4.21146
-4.91849
-1.8556
-1.88092
-1.97637
-1.88263
-1.8448
-1.91016
-1.8848
-1.90314
-1.92306
-1.95548
-1.98647
-2.02541
-2.07245
-2.08862
-2.1375
-2.31849
-2.55388
-2.58852
-2.82169
-2.91042
-3.25583
-4.23459
-4.32381
-1.7016
-1.71606
-1.75915
-1.75266
-1.78063
-1.83357
-1.76688
-1.81056
-1.81975
-1.85153
-1.87127
-1.90219
-1.92284
-1.94167
-2.04695
-2.18644
-1.94715
-2.78013
-2.53976
-2.80517
-2.9478
-3.55178
-3.63983
-1.6469
-1.6599
-1.67892
-1.67797
-1.71242
-1.65674
-1.67737
-1.70192
-1.70895
-1.7208
-1.73749
-1.76405
-1.72898
-1.78198
-1.94938
-2.01135
-2.06187
-2.25297
-2.00078
-2.56136
-2.34465
-2.91928
-3.0138
-1.56627
-1.57834
-1.56884
-1.60858
-1.56483
-1.57559
-1.59133
-1.60746
-1.61811
-1.63328
-1.65654
-1.70453
-1.71395
-1.97681
-1.83639
-1.83417
-1.85134
-1.72126
-2.12514
-2.05014
-2.35939
-2.30843
-2.20515
-1.4784
-1.47811
-1.4768
-1.46175
-1.46901
-1.48133
-1.48937
-1.50205
-1.51407
-1.53348
-1.54759
-1.57307
-1.58329
-1.6588
-1.62821
-1.63043
-1.63974
-1.68688
-1.84467
-1.8875
-1.80671
-1.98133
-2.08091
-1.35909
-1.35629
-1.3606
-1.35498
-1.36738
-1.37225
-1.37981
-1.38852
-1.39746
-1.41358
-1.42336
-1.44119
-1.44943
-1.4877
-1.46528
-1.4658
-1.47631
-1.50461
-1.56379
-1.34824
-1.20242
-1.5302
-1.65983
-1.25007
-1.25081
-1.25501
-1.25324
-1.25556
-1.25894
-1.26236
-1.26738
-1.27433
-1.28216
-1.29031
-1.30114
-1.30892
-1.32334
-1.3034
-1.29237
-1.29355
-1.31037
-1.15753
-1.3128
-1.2204
-1.43616
-1.53009
-1.13973
-1.13955
-1.13929
-1.13876
-1.14052
-1.14263
-1.14497
-1.14884
-1.15237
-1.15722
-1.15938
-1.16299
-1.16181
-1.16622
-1.1531
-1.13772
-1.1172
-1.0977
-1.05673
-1.02294
-1.05
-1.0772
-0.988629
-1.02174
-1.022
-1.02323
-1.02436
-1.02504
-1.02793
-1.02785
-1.03044
-1.02968
-1.03201
-1.02987
-1.02999
-1.02376
-1.02315
-1.00672
-0.982297
-0.964462
-0.94152
-0.90856
-0.903578
-1.03782
-0.734759
-0.806047
-0.90846
-0.908449
-0.909089
-0.908935
-0.909596
-0.909796
-0.909761
-0.9094
-0.907785
-0.906518
-0.90205
-0.899963
-0.890973
-0.888134
-0.871647
-0.844767
-0.824605
-0.802754
-0.807067
-0.789171
-0.755641
-0.668435
-0.472235
-0.794967
-0.79555
-0.795714
-0.795656
-0.795512
-0.794555
-0.7937
-0.791556
-0.789306
-0.786379
-0.780785
-0.779317
-0.766664
-0.759738
-0.736392
-0.6973
-0.677184
-0.642814
-0.657335
-0.484582
-0.546307
-0.493405
-0.499203
-0.681946
-0.681437
-0.680416
-0.679301
-0.67748
-0.676308
-0.673919
-0.672374
-0.668864
-0.666186
-0.659215
-0.657964
-0.643554
-0.641317
-0.610227
-0.577253
-0.55544
-0.518331
-0.495467
-0.437231
-0.44684
-0.409532
-0.383337
-0.586311
-0.585563
-0.584208
-0.582263
-0.579969
-0.577372
-0.574054
-0.570679
-0.56578
-0.56088
-0.553383
-0.542781
-0.529006
-0.519938
-0.487996
-0.44883
-0.432521
-0.398964
-0.373128
-0.324828
-0.292509
-0.287432
-0.213293
-0.490895
-0.490725
-0.48951
-0.487825
-0.485667
-0.483209
-0.48033
-0.477508
-0.47442
-0.472401
-0.469905
-0.466706
-0.456945
-0.430393
-0.372644
-0.306662
-0.293667
-0.268271
-0.251196
-0.239975
-0.258698
-0.285264
-0.168264
-0.140349
-0.140397
-0.13976
-0.139245
-0.137552
-0.135944
-0.134149
-0.13205
-0.131425
-0.13095
-0.13323
-0.143913
-0.171418
-0.261124
-0.44021
-0.464227
-0.452266
-0.414001
-0.35764
-0.292384
-0.167566
-0.0869993
-0.13898
403.785
205.075
410.293
525.412
841.838
731.343
921.429
952.452
1270.54
1194.38
967.272
978.271
1161.08
1074.97
1003.86
983.186
628.129
849.693
1034.52
1056.52
88.3754
157.05
261.779
306.513
-0.488723
3.05927
9.41303
21.4524
-2.86391
-2.97169
-3.20386
-3.43538
-3.44547
-3.54535
-3.83746
-3.98754
-3.37657
-3.472
-3.53113
-3.7007
-3.66407
-3.65745
-3.63526
-3.77597
-3.73314
-3.92471
-4.10665
-4.31826
-4.04041
-4.26328
-4.49569
-4.67555
-4.027
-4.23023
-4.48636
-4.80099
-4.17116
-4.23994
-4.5077
-4.93209
-4.81905
-4.79204
-5.15928
-5.36991
-4.65126
-4.91198
-5.17258
-5.87563
-5.2392
-5.72318
-6.39619
-7.005
-5.81151
-6.5702
-7.55291
-8.50458
-6.45394
-7.17977
-8.19005
-8.50014
-6.81027
-7.79047
-8.97089
-7.54502
-7.01494
-8.45388
-9.7719
-10.3924
-7.37092
-8.79575
-9.75265
-10.7251
-6.8178
-7.93407
-8.866
-9.75265
-6.68466
-7.04201
-8.09043
-9.15953
-6.12022
-7.0243
-7.89016
-8.50875
-5.51923
-5.89107
-6.51663
-6.93205
-4.66499
-4.93836
-5.28506
-5.54402
-3.84805
-3.96613
-4.13969
-4.25507
-3.11339
-3.19794
-3.30494
-3.37706
-2.40467
-2.49196
-2.56309
-2.60704
-2.09311
-2.09052
-2.09261
-2.06994
-1.68846
-1.64787
-1.63122
-1.59251
-1.29356
-1.22454
-1.24876
-1.22451
-1.04623
-1.10634
-1.06448
-0.959251
-0.972557
-0.854639
-0.784126
-0.758084
-0.619854
-0.745537
-0.652431
-0.591643
-0.541645
-0.485249
-0.456522
-0.442353
-0.326317
-0.381452
-0.329821
-0.295502
-0.251049
-0.213064
-0.227624
-0.160609
-0.107398
-0.109154
-0.100314
-0.11039
-0.106358
-0.0944835
-0.0775987
-0.0489274
215.897
6.96556
9.42174
10.174
10.2538
10.1104
10.0647
10.0822
10.1287
10.1843
10.2098
10.2133
10.1798
10.1163
10.0545
9.99999
9.94436
9.9118
9.89166
923.676
557.581
222.558
15.5281
10.4689
9.95077
9.92971
9.91738
10.0221
10.0415
10.1936
10.2223
10.2194
10.1121
10.0499
9.98054
9.91586
9.8754
9.85208
846.999
1077.61
500.976
204.39
33.4145
10.2
9.35323
9.51598
9.87592
10.1107
10.1583
10.3369
10.2326
10.1444
10.0399
9.95333
9.87641
9.82663
9.79941
921.324
1064.88
699.507
641.162
585.494
199.348
32.8043
11.2237
10.1531
10.0097
10.2688
10.3415
10.2891
10.1544
10.0309
9.91743
9.82503
9.76377
9.7317
1052.56
1222.58
767.501
431.969
948.296
710.517
387.702
67.3408
12.5817
9.84137
10.5029
10.4105
10.339
10.172
10.0067
9.86555
9.75491
9.68197
9.64472
756.816
782.493
1155.54
1475.29
927.435
566.173
1094.13
648.76
118.336
13.0645
10.5784
10.4839
10.395
10.176
9.96651
9.79334
9.66303
9.57776
9.53518
162.543
450.13
1074.88
1141.2
1056.6
1117.79
1243.83
728.696
138.133
18.2552
10.9435
10.6322
10.4801
10.1527
9.89199
9.68883
9.54083
9.44548
9.39849
9.56158
30.1785
192.77
896.343
1315.69
1247.05
1204.66
1439.93
419.177
42.9721
10.9354
10.6627
10.5287
10.0851
9.77759
9.54765
9.38482
9.28167
9.23136
-4.16585
-4.24801
0.445796
61.6708
270.123
956.703
1604.18
1977.6
1156.11
238.266
17.9723
10.4584
10.3409
9.88867
9.58194
9.34968
9.18535
9.08124
9.03052
-4.19297
-4.51735
-5.03618
-5.14056
3.85593
86.841
648.022
1896.66
1447.67
583.335
61.8224
10.8484
10.2467
9.6119
9.3428
9.10611
8.94529
8.84416
8.79497
-4.12953
-4.07788
-4.99056
-5.19262
-4.03418
29.1101
781.485
1730.96
1815.35
965.298
136.206
12.2867
9.58866
9.23584
9.02392
8.80309
8.65849
8.56878
8.52501
-4.65647
-5.39493
-4.78701
-4.90764
-4.44084
4.09026
391.519
1711.7
2152.7
1177
179.927
12.9753
9.20762
8.82563
8.62585
8.45157
8.33179
8.25905
8.22322
-5.1639
-4.63704
-4.9194
-5.21906
-5.15959
-3.44099
273.506
1717.8
1970
1455.55
210.763
11.3442
8.49217
8.27996
8.14738
8.04537
7.96605
7.91864
7.89445
-5.37471
-5.70467
-5.80137
-5.69377
-5.0516
-0.0887405
370.727
1835.84
2014
1069.29
111.986
7.39118
7.49784
7.6006
7.60056
7.60061
7.57283
7.55665
7.54601
-5.60329
-6.57097
-6.52889
-6.70515
-4.4369
28.4499
416.198
1237.66
988.873
241.014
14.0107
4.80525
6.46469
6.89243
7.0426
7.13267
7.16136
7.18015
7.18454
-5.71115
-7.19538
-6.80888
-5.29707
1.18482
29.9649
123.205
160.164
81.779
7.61715
1.72421
3.89657
5.50607
6.17809
6.4927
6.67664
6.75528
6.80616
6.8239
-6.72714
-7.61547
-7.19433
-3.51496
-0.134837
-1.02574
-3.18543
-2.54718
-2.05913
-0.96043
1.1701
3.33453
4.95575
5.63044
6.02427
6.24064
6.35651
6.4339
6.46259
-8.42483
-7.69671
-7.30596
-4.28566
-4.96852
-6.94213
-7.95223
-6.10689
-3.19383
-0.584885
1.11803
3.24398
4.63255
5.34887
5.63724
5.85705
5.9882
6.06677
6.09825
-9.76843
-10.3084
-9.34593
-7.92777
-7.26622
-8.24083
-8.13779
-6.80812
-4.45719
-1.05988
1.00727
3.25737
4.45327
5.0829
5.34748
5.57863
5.6719
5.74364
5.77536
-6.85257
-11.6249
-11.2875
-9.88851
-7.8944
-8.05235
-9.71374
-8.48453
-0.377787
7.21454
1.41874
3.44805
4.3938
4.87881
5.08674
5.30179
5.3759
5.44314
5.47465
-3.36148
-11.0679
-12.2673
-10.4505
-6.55721
-5.822
15.7213
62.3641
143.067
64.1811
4.42236
4.06186
4.41436
4.71794
4.91559
5.03335
5.11576
5.17284
5.20044
-8.73861
-8.03235
-9.98352
-11.6614
1.86428
63.6791
1029.99
1349.82
653.531
74.5869
4.94142
4.50019
4.5617
4.66208
4.76597
4.82802
4.88927
4.92908
4.95098
-9.56037
7.61025
-1.86672
3.39065
268.257
1518.39
1785.04
1737.02
532.14
38.9286
4.657
4.64982
4.58948
4.56384
4.60145
4.6034
4.66869
4.70225
4.71988
-9.61263
7.3808
39.1294
162.216
1403.73
1883.11
1718.13
753.408
111.865
6.98853
4.53692
4.5054
4.47675
4.39184
4.40567
4.41333
4.46257
4.48617
4.50283
-10.556
-5.25958
55.1288
243.617
765.803
820.216
419.36
68.6314
5.62665
3.70312
4.09736
4.18078
4.19925
4.21338
4.2555
4.28389
4.26899
4.28227
4.29555
-9.46246
-10.3274
4.85358
68.2082
86.9465
58.5273
13.8917
2.589
2.7842
3.39342
3.85919
3.92554
3.97259
4.01287
4.03165
4.04424
4.06768
4.07873
4.09824
-7.52822
-8.84745
-9.8858
-6.78632
-3.29351
-1.51194
0.225368
1.91344
2.83271
3.16891
3.62866
3.67053
3.76235
3.81532
3.83723
3.82491
3.86376
3.87658
3.88669
-5.91176
-6.62061
-6.97392
-5.71632
-3.39402
-1.557
0.148464
1.92151
2.7774
3.15895
3.38738
3.44513
3.56386
3.60221
3.63711
3.66726
3.65239
3.65762
3.65185
-4.3958
-4.6422
-4.84449
-4.02863
-2.32122
-1.0994
0.274069
1.85942
2.28147
2.85625
3.14025
3.25845
3.38466
3.35601
3.40318
3.44156
3.42353
3.44547
3.45482
-3.4116
-3.38424
-3.28366
-2.83683
-2.02381
-0.628933
0.510607
1.64177
2.19824
2.69948
2.93923
2.9823
3.1189
3.11977
3.16763
3.17672
3.18716
3.26998
3.29631
-2.58332
-2.49863
-2.26298
-1.81266
-1.3367
-0.822046
-0.208084
0.903981
1.57591
2.00402
2.54537
2.87925
2.80717
2.85802
2.94088
2.93842
2.97605
3.09188
3.08401
-1.99444
-1.83774
-1.60046
-1.24811
-0.8115
-0.37072
-0.0798029
0.261733
0.759537
1.17191
1.45787
1.95371
2.47935
2.63433
2.88551
2.75978
2.79512
2.84306
2.80519
-1.52131
-1.3482
-1.12007
-0.829319
-0.502099
-0.146496
0.195356
0.470413
0.800739
1.13098
1.28161
1.37846
1.64507
2.15182
1.99324
2.55081
2.56989
2.71083
2.60032
-1.15073
-0.994619
-0.790589
-0.551294
-0.287033
-0.0196398
0.240544
0.528549
0.779854
1.03885
1.19578
1.31813
1.39555
1.40718
1.44332
1.65952
1.92243
1.83776
2.04308
-0.868733
-0.722513
-0.544097
-0.346322
-0.134089
0.0785557
0.288929
0.489268
0.666559
0.858347
0.983881
1.1328
1.24229
1.30824
1.32461
1.30012
1.25756
1.26935
1.28743
-0.655028
-0.531577
-0.370878
-0.210889
-0.039399
0.127927
0.295291
0.451787
0.590806
0.731065
0.832318
0.918522
0.994322
1.08374
1.11109
1.1532
1.148
1.16763
1.17783
-0.492386
-0.370035
-0.233024
-0.103486
0.0331194
0.160939
0.288359
0.403389
0.50678
0.605792
0.688578
0.754143
0.804096
0.843847
0.859084
0.901612
0.927462
0.941896
0.95273
-0.352331
-0.253131
-0.146358
-0.0484886
0.0526419
0.14596
0.238022
0.320011
0.394568
0.463454
0.522192
0.572776
0.610202
0.637119
0.644124
0.6581
0.650832
0.654204
0.658375
-0.236955
-0.146967
-0.0679115
0.00660565
0.0796407
0.143016
0.202964
0.254047
0.299892
0.341924
0.380285
0.4131
0.434269
0.439121
0.432718
0.438654
0.433079
0.435355
0.43882
-0.140521
-0.0803839
-0.0405072
0.00614824
0.0449091
0.07959
0.111139
0.136964
0.160192
0.181114
0.201851
0.220257
0.229782
0.226132
0.214904
0.211621
0.206869
0.206921
0.208471
-0.0761833
-0.0366857
-0.00354378
0.0211043
0.0401089
0.0535185
0.0626204
0.0667492
0.0683242
0.067767
0.0656727
0.0604925
0.0551246
0.0540469
0.0544217
0.0502749
0.0442009
0.042036
0.0420925
-0.0322467
-0.0157214
-0.0364489
-0.0463353
-0.0778515
-0.111765
-0.145172
-0.175449
-0.202962
-0.227358
-0.249417
-0.265578
-0.273657
-0.268072
-0.26664
-0.271562
-0.277366
-0.280244
-0.280183
)
;

boundaryField
{
    leftWall
    {
        type            zeroGradient;
    }
    rightWall
    {
        type            zeroGradient;
    }
    lowerWall
    {
        type            zeroGradient;
    }
    atmosphere
    {
        type            totalPressure;
        rho             rho;
        psi             none;
        gamma           1;
        p0              uniform 0;
        value           nonuniform List<scalar> 
46
(
-0.229434
-0.230831
-0.229619
-0.228008
-0.225454
-0.222556
-0.219175
-0.21561
-0.212236
-0.209435
-0.207093
-0.208918
-0.212602
-0.23763
-0.278985
-0.26939
-0.259265
-0.227814
-0.186809
-0.145335
-0.108632
-0.084066
-0.0610788
-0.0350811
-0.0283859
-0.0219606
-0.00950901
-0.0010173
0
0
0
0
0
0
0
0
0
0
0
0
0
0
0
0
0
0
)
;
    }
    defaultFaces
    {
        type            empty;
    }
}


// ************************************************************************* //
