/*--------------------------------*- C++ -*----------------------------------*\
| =========                 |                                                 |
| \\      /  F ield         | foam-extend: Open Source CFD                    |
|  \\    /   O peration     | Version:     4.1                                |
|   \\  /    A nd           | Web:         http://www.foam-extend.org         |
|    \\/     M anipulation  |                                                 |
\*---------------------------------------------------------------------------*/
FoamFile
{
    version     2.0;
    format      ascii;
    class       surfaceScalarField;
    location    "0.25";
    object      phi;
}
// * * * * * * * * * * * * * * * * * * * * * * * * * * * * * * * * * * * * * //

dimensions      [0 3 -1 0 0 0 0];

internalField   nonuniform List<scalar> 
4432
(
3.78099e-06
-3.78099e-06
7.47191e-06
-3.69091e-06
1.20788e-05
-4.60693e-06
1.47844e-05
-2.70552e-06
1.93225e-05
-4.5381e-06
2.34496e-05
-4.12718e-06
2.77267e-05
-4.27708e-06
3.14433e-05
-3.71657e-06
3.32834e-05
-1.84006e-06
3.38926e-05
-6.09251e-07
5.34857e-05
-1.95931e-05
5.83376e-05
-4.85194e-06
6.17054e-05
-3.36773e-06
6.60244e-05
-4.31908e-06
6.83489e-05
-2.3245e-06
6.87883e-05
-4.39318e-07
6.73898e-05
1.39845e-06
6.55799e-05
1.80988e-06
6.23143e-05
3.26561e-06
5.46641e-05
7.65017e-06
4.19437e-05
1.27205e-05
2.51492e-05
1.67945e-05
2.51492e-05
3.80952e-06
-7.59051e-06
7.56738e-06
-7.44877e-06
1.21069e-05
-9.14645e-06
1.48181e-05
-5.41672e-06
1.95367e-05
-9.25666e-06
2.37154e-05
-8.30589e-06
2.79831e-05
-8.54477e-06
3.14777e-05
-7.21123e-06
3.34378e-05
-3.80013e-06
3.45849e-05
-1.75636e-06
5.12399e-05
-3.62481e-05
5.68052e-05
-1.04173e-05
6.05319e-05
-7.09439e-06
6.43959e-05
-8.18304e-06
6.6427e-05
-4.3556e-06
6.67269e-05
-7.39257e-07
6.5466e-05
2.6593e-06
6.35725e-05
3.70346e-06
6.10157e-05
5.8224e-06
5.3079e-05
1.55868e-05
4.08789e-05
2.49205e-05
2.23842e-05
3.52893e-05
4.75333e-05
3.7892e-06
-1.13797e-05
7.60103e-06
-1.12606e-05
1.201e-05
-1.35554e-05
1.48711e-05
-8.27786e-06
1.97384e-05
-1.41239e-05
2.37759e-05
-1.23434e-05
2.7594e-05
-1.23629e-05
3.22789e-05
-1.18961e-05
3.34312e-05
-4.95245e-06
5.84923e-05
-2.68175e-05
5.26416e-05
-3.03973e-05
5.65253e-05
-1.4301e-05
5.93249e-05
-9.89402e-06
6.0567e-05
-9.42514e-06
6.19658e-05
-5.75443e-06
6.3614e-05
-2.38746e-06
6.38827e-05
2.39066e-06
6.21928e-05
5.39333e-06
5.94927e-05
8.5225e-06
5.30585e-05
2.2021e-05
4.15256e-05
3.64535e-05
2.71734e-05
4.96415e-05
7.47067e-05
3.7877e-06
-1.51674e-05
7.67374e-06
-1.51466e-05
1.19397e-05
-1.78214e-05
1.54482e-05
-1.17863e-05
2.01203e-05
-1.8796e-05
2.32664e-05
-1.54895e-05
2.83901e-05
-1.74866e-05
3.06755e-05
-1.41815e-05
5.10186e-05
-2.52956e-05
5.10764e-05
-2.68753e-05
4.84816e-05
-2.78026e-05
5.02277e-05
-1.60471e-05
5.1636e-05
-1.13023e-05
5.37967e-05
-1.15858e-05
5.60932e-05
-8.05087e-06
5.76515e-05
-3.94579e-06
5.82394e-05
1.80279e-06
5.82623e-05
5.37036e-06
5.61424e-05
1.06424e-05
4.95816e-05
2.85819e-05
4.09484e-05
4.50866e-05
2.61767e-05
6.44132e-05
0.000100883
3.73763e-06
-1.8905e-05
7.64643e-06
-1.90554e-05
1.19269e-05
-2.21019e-05
1.58012e-05
-1.56605e-05
2.00186e-05
-2.30135e-05
2.30298e-05
-1.85007e-05
2.79578e-05
-2.24145e-05
2.87317e-05
-1.49554e-05
4.39702e-05
-4.05341e-05
4.31362e-05
-2.60413e-05
4.17972e-05
-2.64636e-05
4.49094e-05
-1.91593e-05
4.81781e-05
-1.45709e-05
5.23143e-05
-1.5722e-05
5.54585e-05
-1.11951e-05
5.73911e-05
-5.8784e-06
5.84084e-05
7.85517e-07
5.77444e-05
6.03438e-06
5.66708e-05
1.17159e-05
5.10744e-05
3.41784e-05
4.3182e-05
5.29789e-05
3.31621e-05
7.44332e-05
0.000134045
3.71757e-06
-2.26226e-05
7.73197e-06
-2.30698e-05
1.18936e-05
-2.62636e-05
1.57639e-05
-1.95308e-05
1.98733e-05
-2.71229e-05
2.38433e-05
-2.24706e-05
2.53072e-05
-2.38785e-05
4.0725e-05
-3.03731e-05
3.72077e-05
-3.70168e-05
3.86671e-05
-2.75007e-05
4.01767e-05
-2.79731e-05
4.41307e-05
-2.31134e-05
4.83969e-05
-1.88371e-05
5.35593e-05
-2.08844e-05
5.64872e-05
-1.4123e-05
5.89363e-05
-8.32748e-06
6.04884e-05
-7.66632e-07
6.06751e-05
5.84773e-06
6.04154e-05
1.19755e-05
5.60464e-05
3.85474e-05
4.87003e-05
6.0325e-05
3.51251e-05
8.80084e-05
0.000169171
3.63496e-06
-2.62576e-05
7.75712e-06
-2.7192e-05
1.17246e-05
-3.02311e-05
1.54414e-05
-2.32476e-05
1.98066e-05
-3.1488e-05
2.10674e-05
-2.37315e-05
2.10333e-05
-2.38444e-05
3.48007e-05
-4.41405e-05
3.51995e-05
-3.74156e-05
3.76771e-05
-2.99783e-05
4.09724e-05
-3.12684e-05
4.56266e-05
-2.77676e-05
5.0496e-05
-2.37065e-05
5.48642e-05
-2.52526e-05
5.70541e-05
-1.63128e-05
6.11426e-05
-1.2416e-05
6.46185e-05
-4.24255e-06
6.44765e-05
5.98975e-06
6.52875e-05
1.11645e-05
5.93077e-05
4.45273e-05
5.70736e-05
6.25591e-05
2.78958e-05
0.000117186
0.000197066
3.73959e-06
-2.99972e-05
7.87547e-06
-3.13279e-05
1.13503e-05
-3.37059e-05
1.47664e-05
-2.66637e-05
1.87139e-05
-3.54355e-05
1.87136e-05
-2.37312e-05
3.31397e-05
-3.82705e-05
3.3654e-05
-4.46548e-05
3.52726e-05
-3.90341e-05
3.88273e-05
-3.3533e-05
4.33499e-05
-3.57911e-05
4.80998e-05
-3.25175e-05
5.20233e-05
-2.763e-05
5.50873e-05
-2.83167e-05
5.80655e-05
-1.9291e-05
6.32124e-05
-1.75629e-05
6.75016e-05
-8.53179e-06
6.87305e-05
4.76087e-06
6.89108e-05
1.09842e-05
6.53742e-05
4.80638e-05
6.47672e-05
6.31661e-05
2.96097e-05
0.000152344
0.000226676
9.89487e-06
-9.89487e-06
2.08626e-05
-1.09677e-05
1.72547e-05
3.60781e-06
1.16774e-05
5.57725e-06
7.40223e-06
4.27523e-06
4.77573e-06
2.62648e-06
4.53386e-06
2.41782e-07
5.60719e-06
-1.07326e-06
7.53611e-06
-1.92898e-06
1.02344e-05
-2.69836e-06
1.30844e-05
-2.84985e-06
1.64651e-05
-3.38088e-06
1.81603e-05
-1.69516e-06
2.17342e-05
-3.5738e-06
2.20204e-05
-2.86356e-07
1.24372e-05
9.5833e-06
8.68928e-06
3.74798e-06
4.29872e-06
4.39059e-06
4.2987e-06
1.16432e-05
-2.15382e-05
2.24858e-05
-2.18103e-05
1.85355e-05
7.55805e-06
1.17576e-05
1.23551e-05
6.99232e-06
9.0405e-06
3.93913e-06
5.67974e-06
4.20981e-06
-2.90614e-08
5.85763e-06
-2.72109e-06
8.06602e-06
-4.1373e-06
1.09968e-05
-5.62934e-06
1.43041e-05
-6.15694e-06
1.78832e-05
-6.96007e-06
1.91535e-05
-2.96565e-06
2.3562e-05
-7.982e-06
1.27007e-05
1.05749e-05
1.29093e-05
9.37478e-06
9.00288e-06
7.65446e-06
4.51476e-06
8.87885e-06
8.81342e-06
1.58454e-05
-3.73836e-05
2.794e-05
-3.3905e-05
1.97999e-05
1.56982e-05
1.03718e-05
2.17831e-05
3.40134e-06
1.60109e-05
3.0015e-06
6.07965e-06
3.30487e-06
-3.32566e-07
5.19365e-06
-4.6099e-06
7.67893e-06
-6.62246e-06
1.14121e-05
-9.36268e-06
1.51688e-05
-9.91354e-06
1.75771e-05
-9.36832e-06
1.95122e-05
-4.90095e-06
1.37525e-05
-2.22206e-06
1.32279e-05
1.10994e-05
1.29318e-05
9.67092e-06
9.04748e-06
1.15387e-05
4.56163e-06
1.33648e-05
1.3375e-05
2.29496e-05
-6.03332e-05
3.5177e-05
-4.61324e-05
2.32559e-05
2.76193e-05
4.99352e-06
4.00454e-05
2.01256e-06
1.89918e-05
7.32343e-07
7.35991e-06
1.24602e-06
-8.46333e-07
4.21247e-06
-7.5764e-06
7.0449e-06
-9.45475e-06
1.07105e-05
-1.30285e-05
1.54295e-05
-1.46324e-05
1.87102e-05
-1.2649e-05
2.10572e-05
-7.24817e-06
1.49167e-05
3.91866e-06
2.47428e-05
1.27326e-06
1.31387e-05
2.1275e-05
9.41595e-06
1.52614e-05
4.72029e-06
1.80606e-05
1.80952e-05
3.95228e-05
-9.9856e-05
4.65115e-05
-5.31212e-05
2.34465e-05
5.06843e-05
4.03294e-06
5.9459e-05
-2.4687e-06
2.54933e-05
-2.36214e-06
7.25339e-06
-1.90808e-07
-3.01772e-06
2.41645e-06
-1.01837e-05
5.81451e-06
-1.28527e-05
1.09281e-05
-1.81422e-05
1.59696e-05
-1.96739e-05
2.19036e-05
-1.85829e-05
2.24965e-05
-7.84115e-06
2.76423e-05
-1.2271e-06
1.47179e-05
1.41977e-05
1.32718e-05
2.27212e-05
9.14577e-06
1.93873e-05
4.60302e-06
2.26034e-05
2.26983e-05
4.00096e-05
-0.000139866
5.84711e-05
-7.15828e-05
2.73966e-05
8.17588e-05
-1.93196e-06
8.87875e-05
-8.89404e-06
3.24553e-05
-5.27527e-06
3.63467e-06
-2.95987e-06
-5.33312e-06
1.19256e-06
-1.43362e-05
4.75583e-06
-1.64158e-05
9.76579e-06
-2.31523e-05
1.88416e-05
-2.87498e-05
1.21911e-05
-1.19323e-05
1.315e-05
-8.80006e-06
1.66574e-05
-4.73444e-06
1.51213e-05
1.57337e-05
1.32583e-05
2.45842e-05
9.2043e-06
2.34413e-05
4.69227e-06
2.71155e-05
2.73905e-05
2.4348e-05
-0.000164214
4.46578e-05
-9.18925e-05
9.21833e-06
0.000117198
-4.72467e-06
0.000102731
-1.43793e-05
4.21099e-05
-1.07741e-05
2.95516e-08
-7.23941e-06
-8.86776e-06
-1.51793e-06
-2.00578e-05
1.76779e-06
-1.97014e-05
7.11826e-06
-2.85028e-05
1.09867e-05
-3.26182e-05
2.51892e-05
-2.61346e-05
2.68352e-05
-1.04461e-05
1.74448e-05
4.65599e-06
1.61239e-05
1.70546e-05
1.34984e-05
2.72097e-05
9.30989e-06
2.76298e-05
4.73886e-06
3.16867e-05
3.21294e-05
3.83893e-05
-0.000202603
1.8281e-05
-7.17843e-05
-1.07752e-05
0.000146254
-2.27686e-05
0.000114724
-1.17629e-05
3.11041e-05
-8.97282e-06
-2.76047e-06
-5.44343e-06
-1.23971e-05
-1.38615e-06
-2.41151e-05
2.45814e-06
-2.35457e-05
1.24633e-05
-3.85079e-05
2.11831e-05
-4.13381e-05
2.73239e-05
-3.22753e-05
2.99628e-05
-1.3085e-05
1.85663e-05
1.60525e-05
1.69336e-05
1.86873e-05
1.39215e-05
3.02219e-05
9.55417e-06
3.19973e-05
4.85676e-06
3.63842e-05
3.69862e-05
7.57864e-06
-3.75758e-05
1.60368e-05
-3.97861e-05
2.16502e-05
-3.93193e-05
3.00602e-05
-3.50738e-05
3.50918e-05
-4.04671e-05
5.8813e-05
-4.74524e-05
6.69549e-05
-4.64125e-05
7.2379e-05
-5.00789e-05
7.79652e-05
-4.46203e-05
8.69614e-05
-4.25291e-05
9.70942e-05
-4.59239e-05
0.000104825
-4.02479e-05
0.000113276
-3.60814e-05
0.000120038
-3.50784e-05
0.000126801
-2.60539e-05
0.000140947
-3.17089e-05
0.000150738
-1.83232e-05
0.00015484
6.58519e-07
0.000160911
4.91319e-06
0.000154457
5.4518e-05
0.000114854
0.00010277
0.000105629
0.000161568
0.000110033
0.000222273
7.03215e-06
-4.4608e-05
1.54844e-05
-4.82383e-05
2.15596e-05
-4.53945e-05
4.06128e-05
-5.4127e-05
4.99302e-05
-4.97845e-05
5.73699e-05
-5.4892e-05
6.52948e-05
-5.43374e-05
7.32841e-05
-5.80682e-05
8.29418e-05
-5.42781e-05
9.33807e-05
-5.2968e-05
0.000101854
-5.43973e-05
0.000109141
-4.75346e-05
0.000115399
-4.23392e-05
0.000123274
-4.29542e-05
0.000123908
-2.66879e-05
0.000143514
-5.13149e-05
0.000140973
-1.57812e-05
0.000145177
-3.54605e-06
0.000111597
3.8493e-05
0.000128097
3.8018e-05
0.000142221
8.8646e-05
0.000247424
5.63654e-05
7.56661e-05
0.00028179
1.07616e-05
-5.53695e-05
2.09547e-05
-5.84314e-05
3.19754e-05
-5.64152e-05
4.01544e-05
-6.23061e-05
4.97332e-05
-5.93632e-05
5.78807e-05
-6.30396e-05
6.76997e-05
-6.41564e-05
7.75443e-05
-6.79127e-05
8.78737e-05
-6.46075e-05
9.67514e-05
-6.18458e-05
0.000107722
-6.53679e-05
0.000113421
-5.32336e-05
0.000113555
-4.24733e-05
0.000106838
-3.62369e-05
0.000118547
-3.83973e-05
0.00014141
-7.41772e-05
0.000165965
-4.03366e-05
0.000188631
-2.62117e-05
0.000210503
1.66208e-05
0.000222845
2.5676e-05
0.000256626
5.48647e-05
0.000253792
5.91998e-05
4.78945e-05
0.000281563
1.12499e-05
-6.66195e-05
2.16853e-05
-6.88668e-05
3.18249e-05
-6.65548e-05
3.95712e-05
-7.00524e-05
4.90004e-05
-6.87924e-05
5.78568e-05
-7.1896e-05
6.67084e-05
-7.30081e-05
7.71817e-05
-7.8386e-05
9.03738e-05
-7.77995e-05
0.000106734
-7.82062e-05
0.000123028
-8.16614e-05
0.000114161
-4.43669e-05
8.86207e-05
-1.6933e-05
9.18065e-05
-3.94228e-05
0.000132814
-7.94046e-05
0.000171048
-0.000112411
0.000195459
-6.47474e-05
0.000205902
-3.66545e-05
0.000205537
1.69856e-05
0.000217481
1.3732e-05
0.000239233
3.31127e-05
0.000259761
3.86713e-05
4.61474e-05
0.000261509
1.05931e-05
-7.72126e-05
1.97885e-05
-7.80622e-05
2.91939e-05
-7.59602e-05
3.85119e-05
-7.93704e-05
4.73219e-05
-7.76024e-05
5.42086e-05
-7.87827e-05
6.34142e-05
-8.22136e-05
7.6724e-05
-9.16958e-05
9.29041e-05
-9.39797e-05
0.000119079
-0.000104381
0.000144555
-0.000107138
0.000126372
-2.61838e-05
0.000104328
5.1114e-06
0.000112158
-4.72529e-05
0.000135497
-0.000102743
0.000148678
-0.000125593
0.000179065
-9.51342e-05
0.000115169
2.72411e-05
0.000130743
1.41205e-06
0.000153429
-8.95417e-06
0.00029134
-0.000104798
0.000288097
4.19139e-05
4.99658e-05
0.000284279
1.09649e-05
-8.81775e-05
2.03522e-05
-8.74495e-05
2.99017e-05
-8.55096e-05
3.76199e-05
-8.70886e-05
4.51102e-05
-8.50927e-05
5.07513e-05
-8.44238e-05
5.8122e-05
-8.95843e-05
6.87197e-05
-0.000102293
8.64087e-05
-0.000111669
0.000124575
-0.000142547
0.000163517
-0.00014608
0.000144302
-6.96894e-06
0.000120354
2.90602e-05
0.000101236
-2.81351e-05
0.000132012
-0.000133519
0.000152865
-0.000146446
0.000183994
-0.000126263
0.000219302
-8.06661e-06
0.000236701
-1.59873e-05
0.000241584
-1.3837e-05
0.000174601
-3.78152e-05
0.000194999
2.15156e-05
-4.22662e-05
0.000287231
1.16189e-05
-9.97964e-05
1.98351e-05
-9.56657e-05
2.80969e-05
-9.37714e-05
3.75862e-05
-9.65778e-05
4.38956e-05
-9.14021e-05
4.37617e-05
-8.429e-05
4.59178e-05
-9.17404e-05
5.69417e-05
-0.000113317
8.78504e-05
-0.000142577
0.000139902
-0.000194599
0.000123566
-0.000129744
0.000227188
-0.00011059
0.000292536
-3.6288e-05
0.000310493
-4.6092e-05
0.00034198
-0.000165007
0.000339145
-0.000143611
0.000333967
-0.000121084
0.000362646
-3.67463e-05
0.000375106
-2.84469e-05
0.000399932
-3.8663e-05
0.000390953
-2.88362e-05
0.000395332
1.71362e-05
-1.61688e-06
0.000354683
1.28805e-05
-0.000112677
2.29054e-05
-0.000105691
3.33122e-05
-0.000104178
4.03591e-05
-0.000103625
4.31589e-05
-9.42019e-05
3.83171e-05
-7.94482e-05
3.72525e-05
-9.06758e-05
5.89266e-05
-0.000134992
0.000119739
-0.00020339
0.000146918
-0.000221778
0.000125085
-0.000107911
0.000253374
-0.000238879
0.000327614
-0.000110528
0.000397955
-0.000116433
0.000425546
-0.000192598
0.000430124
-0.000148189
0.000402414
-9.33749e-05
0.000398763
-3.30951e-05
0.000387039
-1.67232e-05
0.000383626
-3.52494e-05
0.00039924
-4.44511e-05
0.000402405
1.39712e-05
0.000116998
0.000283791
3.08671e-06
-0.000115764
1.61912e-05
-0.000118795
3.0828e-05
-0.000118815
4.28204e-05
-0.000115617
5.4289e-05
-0.000105671
7.19473e-05
-9.71064e-05
9.17144e-05
-0.000110443
0.000109252
-0.000152529
9.74422e-05
-0.00019158
0.000101554
-0.00022589
0.000243443
-0.0002498
0.000295885
-0.000291321
0.000343864
-0.000158506
0.000383321
-0.00015589
0.0004141
-0.000223377
0.00044087
-0.000174959
0.000420079
-7.25842e-05
0.000385105
1.87821e-06
0.000355531
1.28515e-05
0.000325997
-5.71556e-06
0.000278498
3.04759e-06
0.000279661
1.28085e-05
1.97127e-05
0.000376946
4.96865e-06
-0.000120732
1.27283e-05
-0.000126555
3.26895e-05
-0.000138776
5.1095e-05
-0.000134023
6.72522e-05
-0.000121828
9.38658e-05
-0.00012372
0.000118089
-0.000134666
0.000134334
-0.000168774
0.000107592
-0.000164838
0.000100087
-0.000218385
0.000121368
-0.000271081
0.000124879
-0.000294832
0.000136764
-0.000170392
0.000259877
-0.000279002
0.000274586
-0.000238086
0.000176732
-7.71048e-05
0.0001825
-7.83518e-05
0.000199621
-1.52427e-05
0.000279384
-6.69118e-05
0.000288059
-1.43913e-05
0.000302192
-1.10852e-05
0.000298169
1.68312e-05
1.93134e-05
0.000298569
5.83303e-06
-0.000126565
1.28269e-05
-0.000133548
2.8701e-05
-0.00015465
4.12083e-05
-0.00014653
5.30424e-05
-0.000133662
7.53565e-05
-0.000146034
0.000101902
-0.000161212
0.000113775
-0.000180647
0.000123247
-0.00017431
0.000118599
-0.000213737
0.000110031
-0.000262514
8.65702e-05
-0.000271371
8.20587e-05
-0.00016588
6.31232e-05
-0.000260067
4.89924e-05
-0.000223956
9.08115e-05
-0.000118924
0.000105076
-9.2616e-05
0.000196186
-0.000106353
0.000175528
-4.62545e-05
0.000184826
-2.36886e-05
0.000162393
1.13479e-05
0.000184213
-4.98943e-06
-6.56817e-05
0.000269208
6.71756e-06
-0.000133283
1.11318e-05
-0.000137962
2.46631e-05
-0.000168182
2.81827e-05
-0.000150049
3.71733e-05
-0.000142652
4.22408e-05
-0.000151102
5.87414e-05
-0.000177712
9.46965e-05
-0.000216602
4.64423e-05
-0.000126056
9.62186e-05
-0.000263513
2.13919e-05
-0.000187687
2.09262e-05
-0.000270905
7.79048e-06
-0.000152744
-7.20262e-06
-0.000245074
-1.001e-05
-0.000221148
-9.0909e-06
-0.000119843
1.18192e-05
-0.000113526
2.0327e-05
-0.00011486
7.24009e-05
-9.83286e-05
9.26528e-05
-4.39404e-05
0.000118426
-1.44248e-05
0.000132875
-1.94386e-05
-9.67969e-05
0.00016399
4.85225e-06
-0.000138135
1.10792e-05
-0.000144189
1.98227e-05
-0.000176925
2.42347e-05
-0.000154461
2.35908e-05
-0.000142009
3.48282e-05
-0.000162339
6.01788e-05
-0.000203063
7.44182e-05
-0.000230842
9.67845e-05
-0.000148422
2.64659e-05
-0.000193195
1.60076e-05
-0.000177229
1.13431e-06
-0.000256032
-6.37161e-06
-0.000145238
-3.49861e-05
-0.000216459
-4.67131e-05
-0.000209421
-1.2475e-05
-0.000154081
8.61674e-06
-0.000134618
1.25593e-05
-0.000118803
7.99567e-06
-9.3765e-05
8.7719e-05
-0.000123664
0.000105015
-3.1721e-05
0.000190149
-0.000104572
-9.16772e-05
0.000185029
5.05744e-06
-0.000143192
1.07233e-05
-0.000149855
1.71257e-05
-0.000183327
1.71992e-05
-0.000154535
2.02077e-05
-0.000145017
2.7698e-05
-0.000169829
3.32697e-05
-0.000208635
3.70243e-05
-0.000234596
4.53477e-05
-0.000156746
2.45835e-05
-0.00017243
8.23078e-06
-0.000160876
-7.07445e-06
-0.000240727
-8.82202e-06
-0.000143491
-4.24505e-05
-0.000182831
-4.31278e-05
-0.000208744
-3.17913e-05
-0.000165418
6.19441e-06
-0.000172604
2.16741e-05
-0.000134283
3.36363e-05
-0.000105727
8.17611e-05
-0.000171789
0.000199078
-0.000149038
0.000251682
-0.000157176
-0.000164774
0.000324778
5.97951e-06
-0.000149172
1.04923e-05
-0.000154368
1.68376e-05
-0.000189673
2.1748e-05
-0.000159445
1.51097e-05
-0.000138379
1.83897e-05
-0.000173109
4.37855e-06
-0.000194623
-1.06203e-05
-0.000219598
3.77416e-05
-0.000205108
2.94241e-05
-0.000164113
2.57896e-05
-0.000157242
-4.71551e-05
-0.000167782
-4.66433e-05
-0.000144003
-2.20393e-06
-0.00022727
-1.50434e-06
-0.000209443
-3.13388e-05
-0.000135584
4.5431e-07
-0.000204397
-5.14137e-06
-0.000128687
6.6535e-05
-0.000177404
8.53444e-05
-0.000190598
0.00012509
-0.000188784
0.000175383
-0.00020747
-0.000204075
0.000214684
4.57404e-06
-0.000153746
6.05733e-06
-0.000155852
7.95425e-06
-0.00019157
1.16425e-05
-0.000163133
1.21366e-05
-0.000138873
1.04393e-05
-0.000171412
9.71013e-07
-0.000185155
-1.7274e-05
-0.000201353
-2.28489e-05
-0.000199533
2.603e-05
-0.000212992
9.01515e-06
-0.000140227
-1.27888e-05
-0.000145978
-1.83224e-05
-0.000138469
-8.66901e-06
-0.000236924
-1.8067e-05
-0.000200046
-9.13691e-06
-0.000144514
1.95366e-05
-0.000233071
2.7628e-05
-0.000136779
5.41288e-05
-0.000203904
9.41339e-05
-0.000230603
0.000143511
-0.00023816
0.000193693
-0.000257652
-0.000259012
0.00024863
2.5247e-06
-0.000156271
5.59978e-06
-0.000158927
1.048e-05
-0.00019645
9.06195e-06
-0.000161715
1.06561e-05
-0.000140467
1.98657e-06
-0.000162742
-3.50642e-06
-0.000179662
-1.49434e-05
-0.000189916
-8.9764e-06
-0.0002055
-4.21159e-06
-0.000217757
-1.16234e-05
-0.000132815
-2.26892e-05
-0.000134912
-2.57848e-05
-0.000135373
-3.58487e-05
-0.00022686
-2.06412e-05
-0.000215253
1.42714e-05
-0.000179426
1.7662e-05
-0.000236461
3.11479e-05
-0.000150264
5.93442e-05
-0.000232101
9.33752e-05
-0.000264634
0.000140896
-0.000285682
0.000174646
-0.000291401
-0.000331937
0.00024757
7.34458e-07
-0.000157005
5.06035e-06
-0.000163253
1.05131e-05
-0.000201903
2.38292e-05
-0.000175032
-9.40984e-06
-0.000107228
-3.33136e-06
-0.000168821
-1.30342e-05
-0.000169959
-2.21328e-05
-0.000180817
-2.28861e-05
-0.000204747
-2.02969e-05
-0.000220346
-2.54968e-05
-0.000127615
-2.20886e-05
-0.000138321
-1.81134e-05
-0.000139349
-2.04934e-05
-0.00022448
-2.26908e-05
-0.000213056
-1.46075e-05
-0.00018751
-1.68648e-05
-0.000234204
5.72054e-05
-0.000224335
5.84427e-05
-0.000233338
8.36334e-05
-0.000289825
0.000117787
-0.000319836
0.000158662
-0.000332276
-0.00044534
0.000272066
-8.06307e-06
-0.000148942
-2.2166e-05
-0.00014915
1.61147e-06
-0.00022568
-1.94966e-05
-0.000153923
1.13427e-05
-0.000138067
-5.28344e-06
-0.000152195
-4.2198e-05
-0.000133045
-1.49798e-05
-0.000208035
-2.28732e-05
-0.000196853
-1.65288e-05
-0.000226691
-1.30835e-05
-0.00013106
-1.22281e-05
-0.000139176
1.05735e-06
-0.000152634
-9.05686e-06
-0.000214366
-8.82334e-06
-0.000213289
-4.81917e-05
-0.000148141
-1.02076e-05
-0.000272188
2.16701e-05
-0.000256212
5.38232e-05
-0.000265491
6.96751e-05
-0.000305677
0.000102527
-0.000352688
0.000196802
-0.000426551
-0.000486395
0.000237857
9.10449e-06
-0.000158047
2.1746e-05
-0.000161791
-2.70788e-05
-0.000176855
-2.17841e-05
-0.000159218
-4.98272e-06
-0.000154868
5.5799e-06
-0.000162757
1.53514e-05
-0.000142817
-3.52819e-05
-0.000157402
-1.10704e-05
-0.000221065
-1.10207e-05
-0.00022674
-7.17745e-06
-0.000134904
-7.68204e-06
-0.000138672
4.46303e-05
-0.000204947
-4.81142e-06
-0.000164924
-4.74966e-05
-0.000170604
-2.18936e-05
-0.000173744
-5.17161e-06
-0.00028891
2.44023e-05
-0.000285786
2.75259e-05
-0.000268615
4.55516e-05
-0.000323702
7.09776e-05
-0.000378114
9.81098e-05
-0.000453683
-0.000542507
0.000154221
1.22516e-06
-0.000159272
2.95234e-06
-0.000163519
-7.57926e-06
-0.000166324
-8.02747e-06
-0.00015877
-4.9044e-06
-0.000157992
-5.78732e-06
-0.000161875
1.80634e-06
-0.00015041
4.69802e-06
-0.000160294
7.82153e-06
-0.000224188
4.3742e-07
-0.000219356
7.2706e-06
-0.000141737
1.40513e-05
-0.000145452
-1.95149e-05
-0.000171381
-1.38701e-05
-0.000170569
-8.09395e-06
-0.00017638
-3.00291e-06
-0.000178835
-2.73623e-06
-0.000289177
7.95031e-06
-0.000296473
1.44172e-05
-0.000275082
1.94486e-05
-0.000328734
3.33651e-05
-0.00039203
4.05468e-05
-0.000460865
-0.000555013
5.30523e-05
-2.27656e-07
-0.000159044
-3.69969e-07
-0.000163376
-8.10419e-06
-0.00015859
-6.73329e-06
-0.000160141
-7.59636e-06
-0.000157129
-6.63072e-06
-0.00016284
-5.66117e-06
-0.00015138
4.5841e-05
-0.000211796
4.35867e-05
-0.000221934
-1.33182e-05
-0.000162451
-8.55188e-06
-0.000146504
-1.67868e-06
-0.000152326
-9.42863e-06
-0.000163631
-1.40687e-05
-0.000165929
-1.29986e-05
-0.00017745
3.21437e-06
-0.000195048
2.92131e-06
-0.000288884
8.88303e-06
-0.000302435
5.96244e-06
-0.000272161
-4.7835e-06
-0.000317988
-6.83712e-07
-0.00039613
9.28563e-06
-0.000470834
-0.000549366
3.63914e-06
-3.77323e-06
-0.000155271
-8.1244e-06
-0.000159025
-1.59709e-05
-0.000150743
-2.86544e-05
-0.000147457
1.41308e-05
-0.000199914
2.29228e-06
-0.000151002
3.73812e-05
-0.000186469
1.76942e-05
-0.000192109
1.02365e-05
-0.000214476
-4.13194e-06
-0.000148083
-6.96591e-06
-0.00014367
-1.00178e-05
-0.000149274
-2.23524e-05
-0.000151296
-2.12035e-05
-0.000167078
-1.75645e-05
-0.000181089
9.93304e-06
-0.000222546
6.74442e-06
-0.000285695
2.53833e-05
-0.000321073
-2.2097e-05
-0.000224681
-1.57516e-05
-0.000324333
-2.80983e-05
-0.000383784
-6.28474e-05
-0.000436085
-0.000526437
-8.57764e-05
-1.65934e-06
-0.000153612
-8.40881e-06
-0.000152276
-1.42159e-05
-0.000144936
1.50862e-05
-0.000176759
3.52114e-06
-0.000188349
2.87697e-05
-0.00017625
1.92938e-05
-0.000176993
1.45309e-05
-0.000187346
-2.52173e-06
-0.000197424
-1.68751e-05
-0.00013373
-1.99613e-05
-0.000140584
-2.32577e-05
-0.000145978
-2.52337e-05
-0.00014932
-2.68462e-05
-0.000165465
2.61964e-05
-0.000234132
-9.37387e-06
-0.000186976
-1.21864e-05
-0.000282882
-8.13701e-06
-0.000325123
-2.32631e-05
-0.000209555
-2.04955e-05
-0.000327101
-3.76304e-05
-0.000366649
-6.39292e-05
-0.000409786
-0.000449039
-0.000141327
1.1686e-06
-0.00015478
1.10633e-05
-0.00016217
4.01866e-05
-0.000174059
2.42512e-05
-0.000160824
1.69566e-05
-0.000181054
1.51079e-05
-0.000174402
3.55788e-05
-0.000197464
-1.47239e-05
-0.000137043
-5.47149e-05
-0.000157433
-4.25288e-05
-0.000145916
-3.64794e-05
-0.000146633
-3.46894e-05
-0.000147768
-2.84803e-05
-0.000155529
-2.08634e-05
-0.000173082
2.29751e-06
-0.000257293
-3.29105e-06
-0.000181387
-1.27509e-05
-0.000273423
-2.41905e-05
-0.000313683
-3.21404e-05
-0.000201605
-3.11368e-05
-0.000328104
-5.11384e-05
-0.000346647
-7.92411e-05
-0.000381684
-0.000322549
-0.000205731
1.14619e-06
-0.000155926
5.02735e-06
-0.000166051
6.92635e-06
-0.000175958
1.08324e-05
-0.00016473
8.2012e-06
-0.000178423
2.07715e-06
-0.000168278
-4.58581e-05
-0.000149529
-3.22035e-05
-0.000150698
-4.0205e-05
-0.000149431
-4.05222e-05
-0.000145599
-4.2959e-05
-0.000144196
-4.63158e-05
-0.000144411
-5.32388e-05
-0.000148606
-6.52929e-06
-0.000219792
7.04975e-06
-0.000270872
1.69305e-05
-0.000191268
-4.41297e-05
-0.000212362
-3.58568e-05
-0.000321956
-3.15628e-05
-0.000205899
-2.85018e-05
-0.000331165
-0.000140826
-0.000234323
-0.000128504
-0.000394005
-0.000282663
-0.000168391
1.09962e-06
-0.000157026
8.00301e-06
-0.000172955
3.44275e-05
-0.000202383
4.62677e-06
-0.000134929
-2.0847e-05
-0.000152949
-3.41569e-05
-0.000154968
-2.8746e-05
-0.000154939
-3.35721e-05
-0.000145872
-3.73226e-05
-0.00014568
-3.94021e-05
-0.000143519
-4.03575e-05
-0.000143241
-4.18407e-05
-0.000142928
-4.62431e-05
-0.000144204
-3.07774e-05
-0.000235257
-5.00894e-05
-0.00025156
-1.01976e-06
-0.000240337
-2.66759e-05
-0.000186706
-6.12704e-05
-0.000287362
-2.08429e-05
-0.000246327
-0.000106156
-0.000245852
-0.000105157
-0.000235322
-0.000160277
-0.000338885
-0.000245364
-0.000197577
-8.40375e-07
-0.000156186
-1.09909e-05
-0.000162804
-4.71229e-05
-0.000166251
-2.44312e-05
-0.000157621
-2.2546e-05
-0.000154835
-2.51305e-05
-0.000152383
-3.31824e-05
-0.000146888
-3.31557e-05
-0.000145899
-3.699e-05
-0.000141846
-4.00472e-05
-0.000140462
-4.29827e-05
-0.000140306
-4.52536e-05
-0.000140657
-4.93599e-05
-0.000140097
-4.87246e-05
-0.000235893
-4.81331e-05
-0.000252152
-4.03822e-05
-0.000248088
-4.36084e-05
-0.00018348
-5.42369e-05
-0.000276733
-0.000111508
-0.000189055
-6.37414e-05
-0.000293619
-9.33971e-05
-0.000205666
-0.000185599
-0.000246683
-0.000215881
-0.000215082
-2.51136e-06
-0.000153674
-7.17553e-06
-0.00015814
-1.48438e-05
-0.000158583
-1.76224e-05
-0.000154843
-2.06777e-05
-0.000151779
-2.60016e-05
-0.00014706
-3.05742e-05
-0.000142315
-3.40744e-05
-0.000142398
-3.87242e-05
-0.000137196
-4.10263e-05
-0.00013816
-4.33773e-05
-0.000137955
-4.54618e-05
-0.000138572
-4.9813e-05
-0.000135746
-5.84841e-05
-0.000227222
-6.35885e-05
-0.000247047
-6.25583e-05
-0.000249119
-1.54367e-05
-0.000230601
-9.3954e-05
-0.000198216
-9.74058e-05
-0.000185604
-9.20021e-05
-0.000299023
-0.000113394
-0.000184274
-0.000161457
-0.000198621
-0.000183804
-0.000193534
-3.58948e-06
-0.000150085
-8.5012e-06
-0.000153228
-1.49774e-05
-0.000152107
-1.8501e-05
-0.000151319
-2.2043e-05
-0.000148237
-2.67723e-05
-0.00014233
-2.8995e-05
-0.000140092
-3.39776e-05
-0.000137416
-3.6067e-05
-0.000135107
-3.67406e-05
-0.000137486
-3.79503e-05
-0.000136745
-3.98477e-05
-0.000136675
-4.37811e-05
-0.000131813
-5.71532e-05
-0.00021385
-7.21852e-05
-0.000232015
-7.75794e-05
-0.000243724
-6.7881e-05
-0.0002403
-9.49624e-05
-0.000171135
-4.95244e-05
-0.000231042
-0.0001706
-0.000177947
-0.000110013
-0.000244861
-0.000159046
-0.000149588
-0.000153348
-0.000189502
-3.95797e-06
-0.000146127
-9.11972e-06
-0.000148067
-1.28935e-05
-0.000148333
-1.70781e-05
-0.000147134
-2.50193e-05
-0.000140296
-2.65667e-05
-0.000140783
-2.95188e-05
-0.00013714
-3.11182e-05
-0.000135817
-3.16691e-05
-0.000134556
-3.17409e-05
-0.000137414
-3.12237e-05
-0.000137262
-2.86616e-05
-0.000139237
-2.03332e-05
-0.000140141
-8.10357e-05
-0.000153147
-7.88968e-05
-0.000234154
-8.12065e-05
-0.000241415
-8.52925e-05
-0.000236214
-3.73751e-05
-0.000219052
-0.000112539
-0.000155878
-0.000138802
-0.000151684
-0.000220793
-0.000162871
-0.000159843
-0.000210538
-0.000148564
-0.000164627
-3.25502e-06
-0.000142872
-7.81344e-06
-0.000143508
-1.14006e-05
-0.000144746
-1.96745e-05
-0.000138861
-2.19502e-05
-0.000138021
-2.55715e-05
-0.000137162
-2.78872e-05
-0.000134825
-2.97443e-05
-0.000133959
-3.12963e-05
-0.000133004
-3.49692e-05
-0.000133742
-3.8975e-05
-0.000133256
-4.38651e-05
-0.000134347
-4.84983e-05
-0.000135508
-6.34869e-05
-0.000138159
-6.92684e-05
-0.000228373
-7.96381e-05
-0.000231045
-8.951e-05
-0.000226342
-9.21025e-05
-0.00021646
-0.000108501
-0.000139479
-0.000118258
-0.000141927
-0.000135613
-0.000145516
-0.000131914
-0.000214238
-0.000104882
-0.000175596
-4.49946e-06
-0.000138372
-8.79863e-06
-0.000139209
-1.44868e-05
-0.000139058
-1.75572e-05
-0.00013579
-2.05084e-05
-0.000135069
-2.38904e-05
-0.00013378
-2.61378e-05
-0.000132577
-2.83428e-05
-0.000131755
-3.07663e-05
-0.000130581
-3.41609e-05
-0.000130347
-3.82401e-05
-0.000129177
-4.3839e-05
-0.000128748
-5.22563e-05
-0.000127091
-6.46861e-05
-0.000125729
-7.10836e-05
-0.000221975
-8.18852e-05
-0.000220243
-9.59543e-05
-0.000212273
-0.000106944
-0.00020547
-0.000124226
-0.000122198
-0.000109479
-0.000156674
-0.000103559
-0.000151435
-0.000207959
-0.000109838
-0.000160672
-0.000152169
-4.41333e-06
-0.000133959
-8.27631e-06
-0.000135346
-1.24332e-05
-0.000134901
-1.49472e-05
-0.000133276
-1.78739e-05
-0.000132143
-2.0322e-05
-0.000131332
-2.31283e-05
-0.000129771
-2.58889e-05
-0.000128994
-2.90834e-05
-0.000127386
-3.27128e-05
-0.000126718
-3.66946e-05
-0.000125195
-4.1372e-05
-0.000124071
-4.64544e-05
-0.000122009
-5.2913e-05
-0.00011927
-5.91193e-05
-0.000215769
-6.78794e-05
-0.000211483
-7.84647e-05
-0.000201688
-9.16886e-05
-0.000192246
-4.447e-05
-0.000169416
-9.94945e-05
-0.000101649
-9.37333e-05
-0.000157197
-9.16682e-05
-0.000111903
-9.95818e-05
-0.000152758
-3.08364e-06
-0.000130875
-6.1338e-06
-0.000132296
-9.15731e-06
-0.000131877
-1.21129e-05
-0.000130321
-1.47748e-05
-0.000129481
-1.76979e-05
-0.000128409
-2.04562e-05
-0.000127013
-2.34197e-05
-0.00012603
-2.65141e-05
-0.000124292
-3.01157e-05
-0.000123116
-3.42031e-05
-0.000121108
-3.89557e-05
-0.000119318
-4.41644e-05
-0.0001168
-4.98718e-05
-0.000113563
-5.69235e-05
-0.000208717
-6.45747e-05
-0.000203832
-7.2553e-05
-0.000193709
-8.22882e-05
-0.000182511
-8.50355e-05
-0.000166669
-9.37724e-05
-9.29125e-05
-0.00011188
-0.000139089
-0.000134792
-8.89905e-05
-0.000131001
-0.000103373
-2.93645e-06
-0.000127939
-5.86791e-06
-0.000129364
-8.73828e-06
-0.000129007
-1.10389e-05
-0.00012802
-1.33459e-05
-0.000127174
-1.56053e-05
-0.00012615
-1.78377e-05
-0.00012478
-2.03714e-05
-0.000123497
-2.2862e-05
-0.000121801
-2.58931e-05
-0.000120085
-2.89534e-05
-0.000118048
-3.25921e-05
-0.000115679
-3.62818e-05
-0.00011311
-4.03789e-05
-0.000109466
-4.63582e-05
-0.000202737
-5.48504e-05
-0.00019534
-6.34769e-05
-0.000185083
-7.11318e-05
-0.000174856
-7.33289e-05
-0.000164472
-7.46621e-05
-9.15793e-05
-0.000128806
-8.49452e-05
-0.000109936
-0.000107861
-7.6532e-05
-0.000164404
-1.92617e-06
-0.000126013
-4.03642e-06
-0.000127254
-6.23152e-06
-0.000126812
-8.3087e-06
-0.000125943
-1.02517e-05
-0.000125231
-1.23921e-05
-0.000124009
-1.43085e-05
-0.000122864
-1.65058e-05
-0.0001213
-1.87264e-05
-0.000119581