/*--------------------------------*- C++ -*----------------------------------*\
| =========                 |                                                 |
| \\      /  F ield         | foam-extend: Open Source CFD                    |
|  \\    /   O peration     | Version:     4.1                                |
|   \\  /    A nd           | Web:         http://www.foam-extend.org         |
|    \\/     M anipulation  |                                                 |
\*---------------------------------------------------------------------------*/
FoamFile
{
    version     2.0;
    format      ascii;
    class       volScalarField;
    location    "0.2";
    object      alpha1;
}
// * * * * * * * * * * * * * * * * * * * * * * * * * * * * * * * * * * * * * //

dimensions      [0 0 0 0 0 0 0];

internalField   nonuniform List<scalar> 
2268
(
1
1
1
1
1
1
1
1
1
1
1
1
1
1
1
1
1
1
1
1
1
1
0.990163
1
0.999999
0.999999
1
1
1
1
1
1
1
1
1
1
1
1
1
1
1
1
1
1
1
0.991039
0.999999
0.999999
0.999999
1
1
1
1
1
1
1
1
1
1
1
1
1
1
1
1
1
1
1
0.994163
0.999999
0.999999
1
1
1
1
1
1
1
1
1
1
1
1
1
1
1
1
1
1
1
1
0.997112
0.999999
1
1
1
1
1
1
1
1
1
1
1
1
1
1
1
1
1
1
1
1
1
0.998864
1
1
1
1
1
1
1
1
1
1
1
1
1
1
1
1
1
1
1
1
1
1
0.999642
1
1
1
1
1
1
1
1
1
1
1
1
1
1
1
1
1
1
1
1
1
1
0.999924
1
1
1
1
1
1
1
1
1
1
1
1
1
1
1
1
1
1
1
1
1
1
0.999991
6.52135e-30
4.82996e-29
1.48191e-28
2.30361e-28
2.29451e-28
1.76276e-31
2.43862e-32
1.03832e-33
1.57657e-35
6.34624e-37
2.69903e-38
9.78935e-40
2.56973e-41
8.03234e-43
1.76533e-44
3.42951e-46
3.4588e-48
2.25469e-50
6.62124e-53
2.2215e-27
1.47307e-26
4.56431e-26
7.16713e-26
2.32957e-26
4.04548e-29
2.09892e-30
6.86379e-32
1.33313e-33
5.38853e-35
2.41335e-36
9.16567e-38
2.5874e-39
7.94856e-41
1.8975e-42
2.18332e-44
2.26683e-46
1.46328e-48
4.32758e-51
3.87344e-25
1.55924e-24
4.49075e-24
6.3679e-24
9.85796e-25
5.23791e-27
1.05237e-28
2.56725e-30
5.51375e-32
2.17786e-33
9.73025e-35
3.6111e-36
1.02725e-37
2.53025e-39
3.60679e-41
4.54457e-43
4.88496e-45
3.33605e-47
1.05311e-49
2.79648e-23
1.08427e-22
2.87312e-22
2.76343e-22
2.10715e-23
3.96051e-25
4.37305e-27
8.41499e-29
1.83361e-30
6.99676e-32
2.97946e-33
1.06885e-34
3.18006e-36
7.79083e-38
1.1749e-39
2.59128e-41
2.56431e-43
1.60428e-45
4.50638e-48
7.86465e-22
2.72649e-21
6.91007e-21
5.11485e-21
3.48263e-22
1.58526e-23
1.44213e-25
2.88275e-27
6.31927e-29
2.56815e-30
9.50619e-32
2.79635e-33
7.71696e-35
2.0796e-36
6.04443e-38
7.75965e-40
7.94694e-42
4.85577e-44
1.33254e-46
9.88535e-21
3.24073e-20
7.27435e-20
5.08941e-20
3.48743e-21
3.32208e-22
3.37616e-24
9.29464e-26
2.23468e-27
1.09359e-28
3.91494e-30
7.98423e-32
1.05595e-33
1.25322e-35
1.82785e-37
2.39312e-39
2.5856e-41
1.74073e-43
5.38846e-46
3.70988e-20
1.62367e-19
2.59307e-19
2.07896e-19
1.93389e-20
2.86205e-21
4.88083e-23
2.44325e-24
6.98808e-26
4.24445e-27
1.53576e-28
3.69537e-30
7.13648e-32
1.20193e-33
1.38998e-35
1.54497e-37
1.42227e-39
8.35647e-42
2.26298e-44
3.77506e-20
8.79347e-20
1.10232e-19
2.93217e-20
4.25698e-22
3.91221e-22
4.06831e-22
4.81307e-23
1.70344e-24
1.3508e-25
5.60447e-27
1.57605e-28
3.06734e-30
5.37923e-32
5.62092e-34
5.08125e-36
3.74367e-38
1.84627e-40
4.4256e-43
1
1
1
1
1
1
1
1
1
1
1
1
1
1
1
1
1
1
1
0.999999
0.999999
1
0.999967
1
1
1
1
1
1
1
1
1
1
1
1
1
1
1
1
1
0.999999
0.999998
0.999982
0.99999
0.999996
0.999958
1
1
1
1
1
1
1
1
1
1
1
1
1
1
1
0.999955
0.99989
0.999809
0.999854
0.999804
0.999827
0.999875
0.999833
1
1
1
1
1
1
1
1
1
0.999999
0.999979
0.999677
0.999911
0.999991
0.999587
0.992452
0.980026
0.98058
0.981773
0.982527
0.987026
0.992239
0.995912
1
1
1
1
1
1
1
0.999999
0.999988
0.999359
0.992499
0.96598
0.988739
0.997199
0.968039
0.819651
0.656932
0.733279
0.736791
0.63269
0.427178
0.466218
0.661669
0.999991
0.999987
0.999982
0.999975
0.999956
0.999929
0.999869
0.999725
0.996987
0.948721
0.79621
0.574473
0.800756
0.890989
0.619373
0.186671
0.0561473
0.0990733
0.0943278
0.0784111
0.0246252
0.0447409
0.102988
0.996722
0.995861
0.995006
0.994004
0.99183
0.989452
0.988926
0.986095
0.901729
0.50473
0.159717
0.0441346
0.225706
0.298695
0.0697127
0.0059419
0.00100152
0.00130665
0.00128955
0.00109061
0.000343433
0.00087213
0.00212911
0.881259
0.865782
0.851793
0.838962
0.812497
0.786976
0.815575
0.820859
0.396816
0.0335243
0.0027356
0.00105825
0.00874372
0.00841022
0.00238687
0.00140014
0.000526751
9.31289e-05
3.33673e-06
4.16746e-07
1.36111e-07
1.96503e-06
1.91834e-05
0.309528
0.27874
0.25365
0.233853
0.196988
0.166415
0.23845
0.286542
0.0414507
0.000940964
4.74981e-05
3.15701e-05
0.000249155
0.000377984
0.000155889
0.000601173
0.000818198
0.000205493
5.56246e-06
8.41285e-09
2.65781e-12
6.03965e-10
5.59355e-08
0.0109545
0.0090547
0.00777605
0.00682891
0.00565666
0.00479556
0.0140336
0.025418
0.00677255
0.000378116
1.21786e-05
4.65552e-06
2.30202e-05
2.63136e-05
1.64409e-05
0.000334829
0.00121187
0.000386536
1.46574e-05
3.57333e-08
2.98838e-12
2.71023e-13
2.40165e-08
0.00026445
0.000208451
0.000194661
0.000169298
0.000136951
0.000126761
0.000528553
0.001089
0.000768492
0.000281606
2.95425e-05
4.71879e-06
4.65552e-06
4.71879e-06
5.49362e-06
0.000416759
0.00141563
0.000505992
2.94457e-05
9.58002e-08
8.0266e-12
1.25472e-12
1.15871e-08
7.64558e-06
5.12421e-06
5.01565e-06
4.72666e-06
3.71242e-06
2.80469e-06
7.37371e-06
8.73639e-06
1.12443e-05
7.58762e-06
6.72904e-06
1.23171e-05
9.36629e-06
8.41707e-06
1.77355e-05
0.000619308
0.00151357
0.000403046
1.31539e-05
1.95842e-08
4.168e-13
4.66021e-13
1.41841e-11
2.51201e-07
1.67601e-07
1.08018e-07
1.3471e-07
1.19451e-07
5.8811e-08
6.59585e-08
4.79069e-08
3.08986e-07
5.97754e-07
7.56824e-06
0.000114157
0.000132816
0.000145469
0.000274028
0.00213372
0.00154539
0.000151791
3.34423e-07
8.80404e-12
1.71468e-14
1.20962e-12
1.50882e-11
9.76628e-09
7.22374e-09
2.2939e-09
4.46872e-09
2.45646e-09
9.60423e-10
1.07606e-09
2.8204e-08
1.00763e-06
1.57105e-05
0.00011938
0.000455668
0.000512371
0.000559247
0.000978005
0.00220234
0.000916987
1.5034e-08
7.31967e-18
2.2132e-17
1.49138e-14
1.31292e-12
8.86668e-12
5.48449e-10
3.96331e-10
7.88016e-11
2.3356e-10
1.03215e-10
6.31592e-11
1.14162e-09
1.49717e-07
6.71558e-06
8.66257e-05
0.000442661
0.000720077
0.000733478
0.000629613
0.000751976
0.000539324
5.88533e-05
4.67915e-10
5.10582e-18
7.24404e-18
1.46334e-16
2.91333e-15
3.73939e-14
7.34673e-11
4.02504e-11
7.88964e-12
2.63967e-11
1.76031e-11
6.7447e-11
2.63708e-09
2.28745e-07
1.14292e-05
0.000142768
0.00045369
0.000392932
6.74525e-05
1.12726e-05
3.09201e-05
1.82684e-05
8.31463e-07
2.7455e-11
4.36505e-18
8.81669e-18
1.58767e-17
2.31924e-17
2.14797e-17
1.5739e-11
6.45284e-12
8.93957e-13
4.55206e-12
7.18479e-12
1.1915e-10
3.08578e-09
2.48071e-07
5.33649e-06
3.69239e-05
0.000123649
8.77838e-05
4.11525e-06
2.06576e-07
1.79336e-07
8.62487e-08
6.21439e-09
1.36381e-12
5.39625e-18
1.07652e-17
1.52056e-17
1.36246e-17
7.01325e-18
2.06265e-12
6.91909e-13
5.11851e-14
5.9864e-13
6.11897e-12
1.4243e-10
2.52359e-09
1.17711e-07
8.79084e-07
2.71407e-06
5.55594e-06
4.1129e-06
1.37776e-06
6.80347e-08
2.85389e-09
6.0727e-11
3.3793e-12
1.23397e-14
3.70335e-18
6.34295e-18
9.2574e-18
9.12522e-18
5.36759e-18
1.26657e-13
2.97391e-14
1.92915e-15
1.5806e-13
8.05869e-12
1.09406e-10
1.75922e-10
4.42363e-10
1.56198e-08
1.93385e-07
8.11987e-07
9.84159e-07
8.55935e-07
4.94072e-08
6.17782e-10
2.01468e-11
6.16296e-14
4.16827e-16
1.21874e-18
2.01962e-18
3.60366e-18
4.75844e-18
4.17974e-18
5.16988e-23
1.70055e-21
1.75655e-16
1.36826e-13
5.09944e-12
1.62131e-11
1.67231e-11
1.77595e-11
1.02201e-09
3.01592e-08
1.62703e-07
2.47305e-07
2.52252e-07
7.01116e-08
4.72008e-10
1.71188e-11
1.28303e-14
2.35024e-16
4.03144e-19
9.60004e-20
3.26185e-19
8.55098e-19
1.65383e-18
9.84665e-23
3.08786e-21
5.86414e-20
4.5492e-19
1.35469e-17
9.46394e-15
1.03525e-12
1.66716e-11
7.46547e-11
7.20774e-10
4.00665e-09
8.64115e-09
9.18475e-09
8.22731e-09
2.93468e-10
2.28219e-11
1.39078e-15
3.60737e-17
1.06589e-19
1.09061e-20
4.34822e-20
1.333e-19
2.82481e-19
7.09575e-23
1.62093e-21
2.17539e-20
1.88231e-19
9.17217e-18
6.00495e-15
3.43807e-13
2.71703e-12
9.2466e-12
3.44856e-11
1.0395e-10
1.66668e-10
1.96415e-10
1.51957e-10
7.01685e-11
1.10255e-11
3.91254e-16
2.63112e-18
1.88691e-20
1.13384e-21
5.10699e-21
1.80563e-20
4.55565e-20
4.54081e-23
8.72237e-22
9.24599e-21
5.5888e-20
1.85565e-19
1.2377e-18
1.45077e-16
3.89286e-14
9.5855e-13
3.62066e-12
3.41355e-12
1.63633e-12
2.68824e-13
2.4358e-14
3.02254e-15
6.08295e-16
1.54121e-16
1.58521e-19
2.81491e-21
9.1084e-23
4.7663e-22
1.96982e-21
5.82079e-21
8.90202e-24
1.73617e-22
1.59387e-21
7.00004e-21
1.02496e-19
4.64531e-19
3.65824e-18
1.495e-17
4.11012e-17
7.42152e-17
6.95793e-17
5.58732e-17
3.79503e-17
2.36542e-17
1.38236e-17
8.9365e-18
3.4632e-18
3.07301e-20
3.78795e-22
5.8054e-24
3.34805e-23
1.56907e-22
5.40053e-22
6.25321e-34
3.79761e-32
1.5557e-30
1.45028e-25
3.70397e-24
2.54718e-23
1.37636e-22
9.07383e-22
2.51974e-21
4.46908e-21
7.10285e-21
9.76856e-21
1.16355e-20
1.2169e-20
1.18771e-20
1.44273e-20
1.0344e-20
7.09982e-21
3.04473e-23
2.45157e-25
1.7132e-24
9.58629e-24
3.88793e-23
6.5373e-34
5.3946e-32
2.74986e-30
9.39092e-29
1.97214e-27
2.44405e-26
2.95562e-25
1.57136e-24
7.6503e-24
2.85536e-23
9.31348e-23
2.48028e-22
5.4645e-22
9.32646e-22
1.69801e-21
2.53763e-21
1.86665e-21
8.53742e-22
2.86165e-24
9.56103e-27
7.24316e-26
4.36829e-25
2.05302e-24
3.66432e-40
1.27822e-38
3.07699e-37
3.04897e-34
2.69091e-33
1.91523e-32
1.16704e-31
9.00819e-31
5.80765e-30
3.72161e-29
2.10057e-28
1.05409e-27
4.4961e-27
1.55729e-26
4.98883e-26
1.2428e-25
2.59581e-25
2.97575e-25
1.77169e-25
2.50633e-28
2.06544e-27
1.4699e-26
7.96204e-26
9.22423e-44
1.29215e-41
5.2161e-40
1.08723e-38
2.51289e-37
4.98755e-36
7.55245e-35
6.96077e-34
5.66445e-33
3.96066e-32
2.3272e-31
1.16626e-30
4.811e-30
1.61059e-29
4.90067e-29
1.14299e-28
1.94365e-28
1.79505e-28
8.24854e-29
5.33746e-30
4.66301e-29
3.8116e-28
2.43012e-27
6.55389e-50
5.66447e-48
2.14924e-46
5.31125e-45
1.01426e-43
1.50469e-42
1.71107e-41
1.51351e-40
1.23624e-39
8.81753e-39
5.73909e-38
3.3711e-37
1.78244e-36
8.31272e-36
3.70028e-35
1.46538e-34
5.22993e-34
2.25167e-33
1.0193e-32
7.38035e-32
8.86359e-31
8.45022e-30
6.67039e-29
3.81509e-54
3.2483e-52
1.30716e-50
3.49469e-49
8.11809e-48
1.62985e-46
2.33731e-45
3.23573e-44
4.07206e-43
4.83225e-42
5.39434e-41
5.59018e-40
5.41938e-39
4.82219e-38
3.82526e-37
2.60767e-36
1.52028e-35
7.7517e-35
3.43518e-34
2.18717e-33
1.49992e-32
1.66892e-31
1.55169e-30
1.55205e-57
1.93326e-55
1.12909e-53
4.33846e-52
1.26915e-50
2.31163e-49
3.74174e-48
5.51837e-47
7.41782e-46
9.16842e-45
1.05761e-43
1.13722e-42
1.17059e-41
1.16958e-40
7.82221e-40
5.51528e-39
3.96251e-38
2.90514e-37
2.79467e-36
2.53522e-35
2.66063e-34
2.54429e-33
2.9146e-32
1.09805e-60
1.67104e-58
1.12025e-56
5.01683e-55
1.31545e-53
3.01477e-52
6.11692e-51
1.11552e-49
1.80955e-48
2.62808e-47
3.40854e-46
3.94257e-45
3.98969e-44
3.56655e-43
2.69712e-42
1.96039e-41
1.36674e-40
1.03894e-39
1.03506e-38
1.25593e-37
1.66364e-36
2.09665e-35
3.05802e-34
1.80232e-63
2.24681e-61
1.40552e-59
5.53925e-58
1.78969e-56
5.00582e-55
1.21801e-53
2.63055e-52
5.05643e-51
8.67682e-50
1.32313e-48
1.7901e-47
2.12246e-46
2.13612e-45
1.7918e-44
1.48647e-43
1.2564e-42
1.23938e-41
1.47763e-40
1.84061e-39
2.55899e-38
3.75101e-37
3.49893e-36
2.28677e-67
3.24635e-65
2.43167e-63
1.24615e-61
5.26722e-60
1.84512e-58
5.58805e-57
1.47207e-55
3.40769e-54
6.93939e-53
1.24058e-51
1.94093e-50
2.62515e-49
3.06442e-48
3.03742e-47
2.75702e-46
2.25996e-45
1.88633e-44
1.89446e-43
2.92786e-42
4.2278e-41
6.68429e-40
1.02359e-38
5.70506e-72
1.47896e-69
1.89754e-67
1.57596e-65
9.64172e-64
4.72216e-62
1.89721e-60
6.45955e-59
1.86898e-57
4.65485e-56
9.95032e-55
1.82785e-53
2.86383e-52
3.79659e-51
4.18218e-50
4.16907e-49
3.67949e-48
3.46187e-47
4.4501e-46
7.89233e-45
1.46182e-43
2.53418e-42
4.02498e-41
6.30626e-80
2.26099e-77
4.04314e-75
4.8472e-73
4.58069e-71
3.50877e-69
2.31868e-67
1.3432e-65
7.07832e-64
3.46605e-62
1.62098e-60
7.34545e-59
3.23067e-57
1.36695e-55
5.46319e-54
2.00994e-52
6.54559e-51
1.8892e-49
4.90287e-48
1.22647e-46
2.78134e-45
4.67798e-44
8.81771e-43
6.98654e-86
4.37709e-83
1.38168e-80
2.95134e-78
4.78615e-76
6.46911e-74
7.34703e-72
7.25625e-70
6.18944e-68
4.61745e-66
2.99353e-64
1.69899e-62
8.44625e-61
3.72566e-59
1.46751e-57
5.33406e-56
1.76368e-54
5.54979e-53
1.66156e-51
4.85611e-50
1.35112e-48
3.37426e-47
7.34126e-46
1.45235e-90
1.0784e-87
3.92919e-85
9.56052e-83
1.78494e-80
2.69908e-78
3.47687e-76
3.88445e-74
3.84359e-72
3.38923e-70
2.68919e-68
1.91998e-66
1.22831e-64
6.98011e-63
3.49685e-61
1.53943e-59
5.67046e-58
1.82486e-56
5.10529e-55
1.30031e-53
4.26589e-52
1.26965e-50
3.59053e-49
9.83624e-97
1.1281e-93
6.1971e-91
2.19737e-88
5.75582e-86
1.18264e-83
2.00298e-81
2.8729e-79
3.57971e-77
3.94346e-75
3.90514e-73
3.51597e-71
2.89849e-69
2.19702e-67
1.51763e-65
9.86058e-64
5.66766e-62
2.90514e-60
1.3728e-58
6.07292e-57
2.7016e-55
1.16624e-53
4.63227e-52
3.44573e-103
5.56586e-100
4.07959e-97
1.90038e-94
6.51961e-92
1.76564e-89
4.0091e-87
7.90526e-85
1.40662e-82
2.31276e-80
3.60656e-78
5.40684e-76
7.99562e-74
1.16949e-71
1.62951e-69
1.74802e-67
1.43328e-65
9.70684e-64
5.54295e-62
2.84986e-60
1.48553e-58
7.72333e-57
3.83642e-55
5.10667e-111
1.41723e-107
1.62651e-104
1.17288e-101
6.28632e-99
2.70399e-96
9.88983e-94
3.17048e-91
9.16106e-89
2.41794e-86
5.97927e-84
1.39486e-81
3.23279e-79
7.2475e-77
1.86054e-74
3.81195e-72
5.39272e-70
6.65147e-68
7.58747e-66
8.67744e-64
1.22392e-61
2.04696e-59
1.83235e-57
0
0
0
0
0
0
0
0
0
0
0
0
0
0
0
2.12374e-76
1.01999e-73
1.23909e-71
9.34855e-70
4.66928e-68
1.63923e-66
1.06928e-64
1.79454e-62
0.999736
0.997374
0.938023
0.219816
0.99985
0.999185
0.990587
0.930969
0.999817
0.999767
0.999268
0.99773
0.998303
0.998634
0.998445
0.998183
0.861395
0.947044
0.98217
0.993229
0.191556
0.297215
0.533816
0.802343
0.00838619
0.0222522
0.0697784
0.146958
0.000131462
0.000843176
0.00340861
0.00768753
4.88664e-07
1.12733e-05
3.65118e-05
7.26979e-05
7.8983e-08
2.42916e-07
1.81649e-07
2.49178e-07
2.9134e-08
2.85578e-08
1.12096e-08
1.22939e-08
8.10546e-11
4.85292e-10
8.20134e-10
2.03983e-09
1.60124e-11
1.6039e-10
3.10458e-08
7.88448e-08
1.03417e-11
1.7535e-09
7.9609e-07
2.58546e-05
7.78731e-13
6.53343e-09
5.16696e-06
0.00102581
9.40253e-18
6.10491e-14
3.11232e-09
1.86984e-19
1.35224e-18
6.67926e-19
3.23338e-19
1.49669e-19
1.43833e-18
6.47383e-19
1.52802e-19
1.16988e-19
2.17516e-18
1.50854e-18
5.96319e-19
1.28915e-19
2.4578e-18
2.98981e-18
2.12123e-18
1.18735e-19
3.40937e-19
2.6501e-19
3.0293e-19
9.53551e-19
6.98083e-20
5.6604e-20
3.17762e-20
1.25665e-20
1.09198e-20
1.021e-20
6.40166e-21
2.18754e-21
1.23459e-21
1.33818e-21
9.73916e-22
3.72295e-22
1.07061e-22
1.35333e-22
1.15865e-22
5.11107e-23
6.80483e-24
1.0009e-23
9.93859e-24
4.95769e-24
3.14414e-25
5.54996e-25
6.81406e-25
4.14683e-25
1.1628e-26
2.39234e-26
3.51765e-26
2.31962e-26
4.06115e-28
1.0498e-27
1.74857e-27
1.2315e-27
1.16184e-29
3.49871e-29
6.25347e-29
4.88764e-29
2.62503e-31
8.56773e-31
1.74264e-30
1.52423e-30
3.24951e-33
1.42079e-32
3.40083e-32
3.61881e-32
3.33885e-35
1.87059e-34
5.25398e-34
6.78523e-34
1.67259e-37
1.18827e-36
5.28844e-36
8.94156e-36
7.61112e-40
6.2819e-39
4.14413e-38
9.1344e-38
1.08336e-41
7.1215e-41
3.4345e-40
9.22812e-40
1.43561e-44
1.05218e-43
6.78862e-43
5.82658e-42
9.67813e-48
1.26067e-46
1.75702e-45
2.46806e-44
1.83841e-50
3.47401e-49
6.63583e-48
1.21806e-46
2.55805e-53
6.79934e-52
1.99863e-50
5.69898e-49
1.21529e-55
4.20916e-54
1.21675e-52
3.45851e-51
3.66212e-60
3.82975e-58
4.01595e-56
7.53144e-54
0.00229097
5.22292e-08
7.88734e-13
1.96807e-12
7.81777e-15
1.65269e-18
1.85222e-21
6.77459e-22
3.36262e-23
2.73246e-24
1.23303e-25
3.19384e-27
5.34215e-29
6.35727e-31
6.50747e-33
5.60661e-35
3.88723e-37
1.86503e-39
4.5829e-42
0.448714
0.0308862
0.000136853
2.61703e-07
3.2224e-10
6.34322e-13
2.46161e-17
9.69982e-21
1.34342e-21
5.76726e-23
3.18709e-24
1.17953e-25
3.45263e-27
5.78038e-29
8.09554e-31
7.96732e-33
5.60996e-35
2.47035e-37
5.28945e-40
0.956558
0.579349
0.0700322
0.00144123
1.41702e-06
7.58808e-09
5.65746e-12
9.76317e-17
6.24985e-20
1.03268e-21
4.94138e-23
1.7988e-24
5.2432e-26
1.10032e-27
1.71633e-29
1.89351e-31
1.4439e-33
6.83701e-36
1.54147e-38
0.997375
0.958409
0.56545
0.0942666
0.00319254
7.35738e-06
2.72601e-08
2.89201e-12
5.61555e-18
1.29458e-21
1.71338e-22
1.18748e-23
4.97563e-25
1.44339e-26
2.89747e-28
3.93117e-30
3.55363e-32
1.90572e-34
4.65919e-37
0.997152
0.996226
0.895622
0.323075
0.028451
0.000614717
5.12386e-06
1.41007e-09
4.74216e-15
1.43683e-21
2.00243e-22
1.64973e-23
7.8353e-25
2.42729e-26
5.10002e-28
7.28784e-30
6.92213e-32
3.99879e-34
1.08894e-36
0.947689
0.994674
0.987072
0.787426
0.177813
0.00973005
7.4008e-05
2.40152e-08
1.29613e-13
8.93912e-21
5.13772e-22
5.36413e-23
2.63199e-24
7.8272e-26
1.52834e-27
2.04449e-29
1.9058e-31
1.1708e-33
3.69288e-36
0.585494
0.941138
0.985948
0.897645
0.261181
0.0116709
5.3676e-05
1.03581e-08
3.29094e-14
3.7877e-20
4.89808e-21
3.90817e-22
1.52375e-23
3.65758e-25
5.84302e-27
6.50966e-29
5.25844e-31
3.03024e-33
9.76917e-36
0.120606
0.748148
0.982508
0.885798
0.252674
0.0114526
3.92123e-05
3.92456e-09
9.55103e-15
5.87269e-19
1.50359e-20
9.00358e-22
3.15182e-23
7.39534e-25
1.2234e-26
1.45743e-28
1.26159e-30
7.57264e-33
2.45231e-35
0.00632436
0.436339
0.949302
0.824681
0.192376
0.00637156
1.17049e-05
4.37223e-10
2.04382e-15
2.37306e-19
1.36571e-20
7.12096e-22
2.31307e-23
5.20146e-25
8.70445e-27
1.14954e-28
1.21913e-30
9.25668e-33
3.59196e-35
0.00070304
0.185779
0.672434
0.386069
0.059479
0.00109821
7.58876e-07
9.78569e-12
8.31867e-16
1.16873e-19
9.12999e-21
4.07294e-22
1.23751e-23
2.79648e-25
5.06479e-27
7.57839e-29
9.04237e-31
7.37795e-33
2.94128e-35
0.00031565
0.0481728
0.156407
0.0611662
0.00746532
7.70369e-05
2.35556e-08
9.71802e-13
2.65121e-16
5.24281e-20
3.58726e-21
1.60283e-22
5.13455e-24
1.24776e-25
2.42133e-27
3.7765e-29
4.53257e-31
3.6118e-33
1.38696e-35
0.000167453
0.0144892
0.0205684
0.0140448
0.000333073
1.33527e-06
1.25259e-09
7.28317e-13
9.56086e-17
1.72944e-20
1.19554e-21
5.63184e-23
1.90241e-24
4.7984e-26
9.6245e-28
1.5163e-29
1.79128e-31
1.38158e-33
5.07676e-36
0.00048007
0.0595418
0.149464
0.0478199
0.00159183
9.0844e-06
8.94493e-09
1.5417e-12
6.01583e-17
6.36978e-21
4.55698e-22
2.08591e-23
6.71214e-25
1.61542e-26
3.12561e-28
4.76224e-30
5.42829e-32
3.98582e-34
1.38331e-36
0.018675
0.463271
0.627401
0.218839
0.0207297
0.000374893
4.76476e-07
3.40363e-11
4.80595e-16
3.60896e-21
2.17621e-22
8.20054e-24
2.22623e-25
4.74223e-27
8.93289e-29
1.34988e-30
1.49153e-32
1.04432e-34
3.39072e-37
0.115433
0.63197
0.632041
0.412894
0.0505581
0.000881458
1.55021e-06
3.50305e-10
9.11888e-15
1.19975e-20
7.1412e-23
2.50316e-24
6.42365e-26
1.30019e-27
2.37362e-29
3.39034e-31
3.44967e-33
2.18479e-35
6.40623e-38
0.0847263
0.514687
0.600017
0.291158
0.0362079
0.000785556
3.17369e-06
2.4274e-09
1.4798e-13
2.6855e-19
1.02269e-22
5.91125e-24
3.04135e-25
1.17884e-26
2.23759e-28
2.72526e-30
1.96225e-32
7.87401e-35
1.35846e-37
0.0140157
0.136599
0.164777
0.0688081
0.01192
0.000584757
6.42395e-06
6.62486e-09
2.29881e-13
1.16047e-19
5.76738e-23
5.63924e-24
3.45097e-25
1.3437e-26
3.39416e-28
5.53869e-30
5.50993e-32
3.09464e-34
7.46517e-37
0.000622396
0.00643624
0.00748389
0.00309221
0.00128834
0.000198828
2.98474e-06
1.90965e-09
2.66252e-14
5.5973e-21
5.88981e-23
4.40545e-24
1.90617e-25
5.49326e-27
1.13059e-28
1.5528e-30
1.34709e-32
6.7544e-35
1.4807e-37
1.04922e-06
1.98261e-05
2.98104e-05
2.00283e-05
3.84984e-05
1.2734e-05
1.51882e-07
3.68152e-11
1.18876e-16
1.8754e-21
1.07621e-22
3.20645e-24
6.77988e-26
1.20116e-27
1.79998e-29
1.99622e-31
1.48293e-33
6.5584e-36
1.30781e-38
1.38115e-11
1.34102e-09
5.09315e-09
2.45412e-08
1.90622e-07
6.40161e-08
3.02202e-10
1.52894e-14
6.87656e-19
4.85262e-21
5.80528e-23
6.01523e-25
8.14843e-27
1.21972e-28
1.59992e-30
1.55597e-32
1.03191e-34
4.1403e-37
7.74464e-40
4.16098e-18
9.92702e-16
3.55248e-14
4.43384e-12
6.93468e-11
1.07977e-11
1.0625e-14
8.80614e-20
5.73899e-20
4.15398e-22
3.40162e-24
3.78094e-26
5.56574e-28
8.10064e-30
9.62843e-32
8.36575e-34
5.032e-36
1.89477e-38
3.44626e-41
8.31933e-21
1.89258e-20
6.6648e-19
3.67182e-17
7.48585e-16
2.61611e-17
5.15422e-21
1.86807e-21
2.88793e-21
1.50465e-23
1.26049e-25
1.79994e-27
2.89034e-29
4.01999e-31
4.36026e-33
3.46383e-35
1.95709e-37
7.15641e-40
1.33098e-42
5.85326e-22
1.34904e-21
1.81879e-21
8.35346e-22
9.12399e-22
1.71082e-22
1.0387e-22
2.46646e-22
9.79131e-23
4.80328e-25
5.06249e-27
8.08287e-29
1.22507e-30
1.56524e-32
1.54812e-34
1.15317e-36
6.35565e-39
2.39649e-41
4.74292e-44
3.8257e-23
1.28644e-22
1.42293e-22
7.81899e-23
4.94663e-23
1.35395e-23
9.09852e-24
2.43142e-23
2.57858e-24
1.66695e-26
2.22529e-28
3.48526e-30
4.66092e-32
5.24679e-34
4.70243e-36
3.38325e-38
1.90153e-40
7.7689e-43
1.6455e-45
2.33956e-24
9.01381e-24
1.02871e-23
6.84596e-24
3.00782e-24
1.15726e-24
7.09418e-25
1.84398e-24
6.49354e-26
6.66896e-28
9.61843e-30
1.36033e-31
1.60213e-33
1.62891e-35
1.37896e-37
9.99134e-40
5.94168e-42
2.61654e-44
5.72766e-47
1.3708e-25
5.09344e-25
7.0266e-25
4.91125e-25
2.07399e-25
8.8338e-26
4.72746e-26
1.05193e-25
1.94771e-27
2.74744e-29
3.75959e-31
4.70834e-33
5.03744e-35
4.83682e-37
4.10681e-39
3.17491e-41
2.0154e-43
9.41178e-46
2.05702e-48
8.79462e-27
2.72361e-26
4.36028e-26
2.91374e-26
1.49294e-26
6.04453e-27
2.85762e-27
4.4344e-27
6.41956e-29
1.01684e-30
1.1873e-32
1.4474e-34
1.48533e-36
1.43425e-38
1.2996e-40
1.09756e-42
7.26205e-45
3.48468e-47
7.38688e-50
5.17159e-28
1.36142e-27
2.57144e-27
1.62946e-27
1.00384e-27
3.62706e-28
1.3861e-28
1.63256e-28
1.94424e-30
3.04171e-32
3.25444e-34
4.03453e-36
4.33332e-38
4.46194e-40
4.44211e-42
4.0197e-44
2.67316e-46
1.28397e-48
2.58987e-51
3.26926e-29
7.29855e-29
1.21375e-28
7.79336e-29
6.21745e-29
1.90269e-29
5.543e-30
4.66737e-30
5.5052e-32
7.4188e-34
8.38463e-36
1.06001e-37
1.25377e-39
1.47888e-41
1.59237e-43
1.49393e-45
9.78293e-48
4.6021e-50
8.74655e-53
1.74851e-30
3.82167e-30
5.97652e-30
3.72543e-30
2.91857e-30
7.75776e-31
1.73026e-31
1.2741e-31
1.20377e-33
1.76579e-35
1.98209e-37
2.74764e-39
3.8544e-41
5.10796e-43
5.71918e-45
5.32726e-47
3.47776e-49
1.57636e-51
2.83144e-54
8.08818e-32
1.78273e-31
2.68192e-31
1.59664e-31
1.20968e-31
2.85073e-32
4.89398e-33
2.46455e-33
2.34223e-35
3.24319e-37
5.2016e-39
7.37593e-41
1.32113e-42
1.73354e-44
1.92382e-46
1.87006e-48
1.1758e-50
5.15706e-53
8.7692e-56
3.07616e-33
7.29155e-33
1.08336e-32
6.09271e-33
4.27155e-33
8.95505e-34
1.20368e-34
4.08792e-35
4.23814e-37
6.26042e-39
1.21478e-40
1.81145e-42
4.99669e-44
5.68143e-46
6.2199e-48
8.0349e-50
3.74194e-52
1.59192e-54
2.56344e-57
9.59124e-35
2.56971e-34
3.80671e-34
2.07788e-34
1.32042e-34
2.47818e-35
2.68948e-36
5.94237e-37
7.325e-39
1.28815e-40
3.17338e-42
5.4217e-44
1.43772e-45
1.66459e-47
1.63155e-49
2.87285e-51
1.16427e-53
4.70585e-56
7.11812e-59
2.45804e-36
7.64939e-36
1.16015e-35
6.23058e-36
3.58229e-36
6.10318e-37
5.63834e-38
8.23967e-39
1.31306e-40
2.84976e-42
8.32501e-44
1.55391e-45
4.09715e-47
4.88302e-49
4.77456e-51
7.96046e-53
3.29027e-55
1.28553e-57
1.87003e-60
5.40246e-38
1.91451e-37
3.09275e-37
1.65706e-37
8.69769e-38
1.36698e-38
1.13205e-39
1.19953e-40
2.54892e-42
6.57604e-44
2.13762e-45
4.17984e-47
1.10109e-48
1.32722e-50
1.27991e-52
2.09605e-54
8.7725e-57
3.29583e-59
4.60079e-62
9.98991e-40
4.13083e-39
7.21728e-39
3.90368e-39
1.90832e-39
2.82966e-40
2.21068e-41
1.96241e-42
5.25252e-44
1.51104e-45
5.22878e-47
1.05127e-48
2.78734e-50
3.37548e-52
3.18532e-54
5.15812e-56
2.18879e-58
7.92667e-61
1.06716e-63
1.31633e-41
7.67915e-41
1.46054e-40
8.24494e-41
3.82413e-41
5.48015e-42
4.20555e-43
3.54065e-44
1.0943e-45
3.35276e-47
1.20515e-48
2.47482e-50
6.59473e-52
7.99608e-54
7.42079e-56
1.19611e-57
5.12119e-60
1.78954e-62
2.3334e-65
1.44444e-43
1.20354e-42
2.61659e-42
1.56243e-42
7.06675e-43
1.00031e-43
7.76539e-45
6.60496e-46
2.21859e-47
7.07427e-49
2.61259e-50
5.47033e-52
1.46274e-53
1.7748e-55
1.63328e-57
2.62019e-59
1.12331e-61
3.79271e-64
4.80336e-67
1.42777e-45
1.61994e-44
4.2388e-44
2.67817e-44
1.21643e-44
1.72983e-45
1.38346e-46
1.21393e-47
4.30357e-49
1.41397e-50
5.33556e-52
1.13865e-53
3.05438e-55
3.70928e-57
3.4069e-59
5.42589e-61
2.31775e-63
7.58288e-66
9.35068e-69
1.2597e-47
1.8812e-46
6.27445e-46
4.19227e-46
1.96401e-46
2.84149e-47
2.36535e-48
2.14989e-49
7.94926e-51
2.6808e-52
1.0308e-53
2.24136e-55
6.03641e-57
7.34338e-59
6.73693e-61
1.06462e-62
4.52892e-65
1.43515e-67
1.72516e-70
1.08419e-49
1.96208e-48
8.70406e-48
6.12335e-48
3.01996e-48
4.47655e-49
3.89255e-50
3.65734e-51
1.40262e-52
4.84312e-54
1.89359e-55
4.19247e-57
1.13541e-58
1.38289e-60
1.26633e-62
1.98864e-64
8.41714e-67
2.5821e-69
3.02643e-72
6.64909e-52
1.87719e-50
1.11731e-49
8.41206e-50
4.4222e-50
6.76724e-51
6.15685e-52
5.96966e-53
2.36948e-54
8.3652e-56
3.32182e-57
7.48233e-59
2.04156e-60
2.48559e-62
2.27251e-64
3.54953e-66
1.49269e-68
4.43977e-71
5.0692e-74
)
;

boundaryField
{
    leftWall
    {
        type            zeroGradient;
    }
    rightWall
    {
        type            zeroGradient;
    }
    lowerWall
    {
        type            zeroGradient;
    }
    atmosphere
    {
        type            inletOutlet;
        inletValue      uniform 0;
        value           nonuniform List<scalar> 
46
(
0
0
0
0
0
0
0
0
0
0
0
0
0
0
0
0
0
0
0
0
0
0
0
0
0
0
7.53144e-54
6.64909e-52
1.87719e-50
1.11731e-49
8.41206e-50
4.4222e-50
6.76724e-51
6.15685e-52
5.96966e-53
2.36948e-54
8.3652e-56
3.32182e-57
7.48233e-59
2.04156e-60
2.48559e-62
2.27251e-64
3.54953e-66
1.49269e-68
4.43977e-71
5.0692e-74
)
;
    }
    defaultFaces
    {
        type            empty;
    }
}


// ************************************************************************* //
