/*--------------------------------*- C++ -*----------------------------------*\
| =========                 |                                                 |
| \\      /  F ield         | foam-extend: Open Source CFD                    |
|  \\    /   O peration     | Version:     4.1                                |
|   \\  /    A nd           | Web:         http://www.foam-extend.org         |
|    \\/     M anipulation  |                                                 |
\*---------------------------------------------------------------------------*/
FoamFile
{
    version     2.0;
    format      ascii;
    class       volScalarField;
    location    "0.2";
    object      pd;
}
// * * * * * * * * * * * * * * * * * * * * * * * * * * * * * * * * * * * * * //

dimensions      [1 -1 -2 0 0 0 0];

internalField   nonuniform List<scalar> 
2268
(
1727.3
1731.13
1735.3
1735.86
1752.23
1750.52
1772.83
1786.65
1791.3
1858.78
1830.7
2041.95
1960.07
1976.49
2007.22
2034.76
2080.29
2117.85
2208.4
2325.5
2442.8
2551.35
2627.9
1726.54
1730.41
1734.24
1735.35
1751.21
1748.77
1772.68
1785.32
1790.97
1866.78
1816.31
2014.22
1955.49
1972.68
2002.9
2030.65
2078.69
2120.75
2206.73
2316.86
2437.01
2543.51
2622.84
1724.92
1728.9
1732.21
1734.38
1748.02
1747.88
1769.49
1783.25
1786.69
1840.94
1870.95
1960.9
1937.13
1962.8
1992.61
2022.47
2068.06
2121.67
2185.88
2294.97
2414.85
2514.34
2576.06
1722.7
1726.73
1729.05
1732.7
1744.82
1743.11
1769.11
1774.58
1784.38
1890.49
1851.97
1929.09
1926.24
1950.81
1981.98
2014.45
2063.44
2120.88
2185.05
2258.77
2387.25
2485.99
2510.63
1719.44
1723.63
1725.28
1729.83
1740.08
1740.69
1763.01
1784.23
1766.3
1869.51
1848.52
1910.48
1909.39
1940.49
1970.87
2005.26
2045.21
2092.72
2160.36
2240.28
2346.8
2431.27
2422.03
1715.89
1719.99
1720.22
1726.22
1733.79
1736.91
1750.4
1758.22
1803.07
1845.23
1837.78
1890.92
1893.08
1928.93
1956.07
1991.8
2025.56
2077.54
2149.28
2210.28
2312.51
2368.19
2238.69
1711.01
1715.32
1715.14
1722.52
1729.02
1724.36
1763.63
1739.93
1795.64
1822.45
1824.22
1870.03
1879.87
1910.42
1940.46
1977.3
2005.22
2037.68
2125.79
2158.8
2245.3
2267.93
1955.42
1706.22
1710.12
1707.95
1712.03
1716.64
1730.49
1731.15
1747.98
1777.25
1802.43
1806.12
1847.08
1856.08
1894.9
1918.12
1957.39
1978.7
2013.31
2073.62
2124.29
2183.54
2022.01
1704.72
4.99409
4.97742
4.95245
4.9355
4.92956
4.93917
4.95619
4.97512
5.0015
5.02211
5.03581
5.05017
5.04879
5.05663
5.04376
5.05087
5.03176
5.03376
5.02864
4.99094
4.97422
4.94591
4.93247
4.92714
4.93828
4.95555
4.97481
5.00625
5.02323
5.03787
5.05175
5.04907
5.05981
5.04415
5.04962
5.0321
5.03339
5.0283
4.98486
4.97257
4.93523
4.92475
4.92357
4.93566
4.9561
4.97641
5.01016
5.02772
5.04067
5.05167
5.05185
5.06073
5.04436
5.04911
5.0317
5.03258
5.02751
4.97992
4.97404
4.93464
4.91302
4.9156
4.93223
4.95718
4.98072
5.01477
5.03481
5.04853
5.06156
5.05281
5.06549
5.03966
5.05268
5.03104
5.03149
5.02631
4.99918
4.97275
4.92399
4.89797
4.90716
4.92681
4.95753
4.98394
5.0216
5.04759
5.05621
5.07374
5.05342
5.06635
5.0508
5.04657
5.03087
5.02972
5.02466
5.02465
4.98754
4.87729
4.86255
4.89391
4.92067
4.96019
4.98935
5.03278
5.05722
5.07541
5.0764
5.06146
5.06935
5.04386
5.04803
5.02992
5.02769
5.02251
4.99748
5.02462
4.81023
4.84406
4.88741
4.9147
4.95902
4.99462
5.0427
5.08949
5.08086
5.09194
5.06947
5.07487
5.04886
5.04602
5.02871
5.0251
5.0199
5.04522
5.15741
4.75975
4.80054
4.84547
4.90275
4.96456
5.01008
5.05283
5.09197
5.09073
5.09485
5.07763
5.07739
5.04802
5.04452
5.0271
5.02204
5.01675
1695.58
1701.23
1693.25
1719.98
1711.23
1675.21
1742.99
1717.3
1753.28
1772.65
1775.69
1806.52
1827.86
1857.71
1899.22
1919.1
1921.87
1954.38
2016.5
1942.37
2099.25
1406.45
1314.01
1681.88
1683.82
1678.43
1667.11
1692.02
1678.24
1692.44
1694.84
1706.19
1724.36
1715.79
1741.06
1725.44
1792.87
1806.05
1921.09
1829.66
1949.57
2079.3
1456.06
1546.73
1277.28
1619.45
1663.26
1660.81
1658.41
1651.39
1659.02
1646.16
1659.02
1650.62
1659.23
1661.31
1656.59
1652.38
1685.72
1627.49
1728.22
1757.01
1701.9
1680.54
1636.53
1444.04
1498.27
1295.09
1680.75
1636.13
1633.41
1633.32
1625.87
1625.49
1619.31
1615.82
1604.6
1600.87
1587.91
1553.84
1512.06
1452.84
1662.56
1755.99
1447.81
1487.15
1440.82
1302.95
1259.45
1252.2
1231.44
1250.79
1609.84
1605.26
1604.48
1593.07
1590.13
1578.29
1570
1550.87
1539.65
1495.95
1461.85
1351.37
1373.4
1453.51
1448.23
1095.1
775.852
1041.19
688.203
698.649
339.29
550.347
819.44
1579.38
1575.45
1571.74
1562.59
1555.37
1540.59
1528.23
1508.04
1465.82
1344.08
1063.43
736.722
1040
1170.78
820.109
230.803
66.2711
117.865
108.073
94.3519
26.4423
53.1619
105.699
1544.86
1538.73
1534.45
1522.95
1513.49
1493.06
1478.44
1443.59
1256.26
681.125
214.326
58.2317
301.918
400.277
92.654
5.36161
-1.54566
-2.1707
-2.96361
-3.2081
-5.56031
-6.2937
-4.35756
1359.16
1333.64
1307
1283.36
1240.31
1191.03
1232.69
1219.6
561.84
45.2838
1.13916
-1.31536
9.73284
8.43629
-0.400852
-1.51382
-3.2319
-4.43863
-5.01617
-5.47257
-5.69483
-7.40255
-7.47636
494.419
444.876
404.898
372.636
313.438
264.352
377.841
449.389
59.2285
-2.79395
-3.7002
-3.75363
-3.44194
-3.52368
-4.13798
-2.87765
-2.82041
-4.68997
-5.23773
-5.50558
-5.99551
-7.3323
-8.06066
16.8054
13.5956
11.3891
9.67908
7.7482
6.26655
21.7748
40.4216
7.00204
-3.91941
-3.94671
-3.85349
-4.07137
-4.45818
-5.12818
-4.11447
-2.6469
-4.65627
-5.84404
-5.95284
-6.38883
-7.13623
-7.30404
-1.57488
-1.69418
-1.75412
-1.86665
-2.04804
-2.18702
-1.58203
-1.15813
-2.30529
-3.41699
-3.95851
-4.04997
-3.8694
-3.7993
-4.23182
-4.40216
-3.53007
-4.87365
-5.70422
-5.93787
-6.34578
-7.14463
-7.73457
-2.05908
-2.08535
-2.1013
-2.20172
-2.17749
-2.44525
-2.36909
-3.21047
-3.51731
-3.33476
-3.81007
-4.59581
-4.22892
-4.03872
-4.49751
-3.59806
-2.63634
-5.23417
-6.13467
-6.21527
-6.632
-7.23581
-7.53364
-2.11636
-2.13162
-2.18639
-2.22366
-2.26928
-2.32581
-2.52965
-2.82899
-3.45368
-3.76278
-3.84335
-4.46083
-5.441
-5.17329
-4.58821
-1.26701
-2.48119
-5.67301
-6.1097
-6.3344
-6.70301
-7.3194
-7.89296
-2.20521
-2.20047
-2.21066
-2.23657
-2.31695
-2.36247
-2.62038
-3.04948
-3.74259
-4.01613
-4.03123
-4.9871
-4.54469
-4.79495
-3.99745
-1.22775
-3.74623
-5.92024
-6.10321
-6.45693
-6.60308
-7.35301
-8.80334
-2.25113
-2.26041
-2.25774
-2.29392
-2.32675
-2.32969
-2.5238
-2.75108
-2.69857
-3.74749
-3.07029
-3.02642
-3.63679
-4.18589
-3.47264
-4.13025
-5.41229
-5.80777
-5.75864
-6.08316
-6.98517
-7.38291
-8.78149
-2.25951
-2.2922
-2.31014
-2.32851
-2.32782
-2.39162
-2.52147
-2.62748
-2.7325
-2.70484
-2.39688
-3.54464
-4.62827
-5.14301
-4.9049
-5.18185
-5.38742
-5.51857
-5.73655
-6.21461
-6.36077
-7.3301
-8.76097
-2.2528
-2.27012
-2.3193
-2.27712
-2.18305
-2.30974
-2.48145
-2.58349
-2.96487
-3.1059
-3.08225
-3.60233
-4.53447
-4.72079
-4.58274
-4.75499
-4.93757
-5.20638
-5.5378
-5.62401
-6.19714
-6.96182
-8.46046
-2.07291
-2.11045
-2.24781
-2.11397
-2.43254
-2.24292
-2.29139
-2.45881
-2.78542
-2.97108
-3.12196
-4.02213
-4.38027
-4.13679
-4.21684
-4.56188
-4.90144
-4.86272
-5.22943
-5.45079
-5.85029
-6.42614
-7.44796
-2.61683
-2.60724
-2.20522
-2.63424
-2.603
-2.83628
-2.86361
-2.89863
-3.13711
-3.1684
-3.14167
-3.70883
-3.96935
-3.68953
-3.92553
-4.44688
-4.48799
-4.63417
-4.88363
-5.10469
-5.47594
-5.84663
-6.47964
-2.52762
-2.48913
-2.70491
-2.6492
-2.63692
-2.65466
-2.79721
-3.106
-2.77561
-3.15631
-3.44775
-3.65009
-3.40432
-3.5244
-3.72458
-4.28126
-4.24426
-4.24701
-4.61909
-4.81606
-5.08969
-5.36013
-5.74264
-2.48234
-2.46612
-2.51708
-2.54565
-2.59706
-2.63879
-2.65911
-2.85597
-2.75845
-2.70079
-3.0485
-3.28349
-3.25301
-3.35862
-3.36441
-3.90638
-3.94235
-4.03476
-4.30975
-4.44702
-4.62071
-4.79377
-4.84943
-2.37568
-2.38384
-2.44996
-2.56832
-2.54401
-2.58166
-2.63529
-2.46058
-2.65407
-2.93768
-2.95953
-3.02977
-3.09909
-3.19477
-3.12511
-3.61845
-3.63471
-3.7396
-3.96884
-4.06089
-4.16219
-4.22238
-4.09201
-2.22047
-2.25232
-2.34493
-2.35129
-2.15758
-2.39467
-2.12221
-2.3732
-2.57578
-2.53406
-2.7067
-2.77678
-2.89626
-3.01557
-3.02937
-3.00545
-3.43831
-3.44338
-3.76503
-3.69082
-3.73992
-3.70995
-3.50809
-2.26483
-2.26404
-2.23357
-1.9424
-2.08949
-1.97422
-2.09981
-2.1661
-2.30418
-2.46212
-2.53052
-2.59822
-2.68724
-2.78683
-2.59244
-2.93534
-2.92592
-3.16052
-3.31834
-3.36157
-3.32711
-3.26963
-3.03837
-1.76079
-1.76055
-1.74927
-1.88308
-1.94742
-1.97466
-1.92191
-2.41408
-2.42573
-2.40117
-2.42969
-2.46605
-2.53644
-2.59825
-2.57358
-2.5487
-2.73107
-2.9827
-2.93518
-2.93287
-2.94895
-2.91696
-2.64623
-1.80771
-1.808
-1.81134
-1.77037
-1.74764
-1.81661
-2.22773
-2.26679
-2.11711
-2.20564
-2.21621
-2.25576
-2.33374
-2.17689
-2.35034
-2.36331
-2.55011
-2.48057
-2.5819
-2.62945
-2.68237
-2.39341
-2.1753
-1.6016
-1.6035
-1.69464
-1.97505
-2.04358
-2.14722
-2.13652
-2.00429
-2.03749
-2.06116
-2.07147
-2.08698
-2.12009
-2.10157
-2.1535
-1.99819
-2.15696
-2.30004
-2.21216
-2.41871
-2.26019
-2.08311
-1.83248
-1.92305
-1.94971
-1.98874
-1.85147
-1.86192
-1.92766
-1.86271
-1.87966
-1.8741
-1.90094
-1.89969
-1.91664
-1.92771
-1.91427
-1.94002
-1.9367
-1.95163
-1.83194
-1.96274
-2.02058
-1.83963
-1.82209
-1.55996
-1.69729
-1.70563
-1.72062
-1.73276
-1.73966
-1.82987
-1.68962
-1.74404
-1.73508
-1.74746
-1.74992
-1.75702
-1.76041
-1.76337
-1.75215
-1.74729
-1.60931
-1.78401
-1.65024
-1.7862
-1.68136
-1.52385
-1.30434
-1.61378
-1.61754
-1.62419
-1.6008
-1.66236
-1.5657
-1.58185
-1.59366
-1.58955
-1.59433
-1.59026
-1.59212
-1.5697
-1.56782
-1.57295
-1.55404
-1.51967
-1.50646
-1.34735
-1.46479
-1.40194
-1.30217
-1.08466
-1.46959
-1.47463
-1.46587
-1.50987
-1.44268
-1.45593
-1.4499
-1.45701
-1.45298
-1.45716
-1.45251
-1.46635
-1.42444
-1.54705
-1.43003
-1.38737
-1.3604
-1.21181
-1.30372
-1.19785
-1.15338
-1.15163
-0.908495
-1.35301
-1.34873
-1.35837
-1.31921
-1.32334
-1.32047
-1.31875
-1.31594
-1.31264
-1.30869
-1.3023
-1.30023
-1.28865
-1.28799
-1.24936
-1.21566
-1.18612
-1.12695
-1.08734
-1.0436
-0.918943
-0.97585
-0.797311
-1.20779
-1.20444
-1.20508
-1.19301
-1.19508
-1.18987
-1.18725
-1.1838
-1.17875
-1.17451
-1.16663
-1.16076
-1.1433
-1.13792
-1.10726
-1.07087
-1.03445
-0.980454
-0.9292
-0.815104
-0.724856
-0.74321
-0.745076
-1.07501
-1.07374
-1.07539
-1.0696
-1.06611
-1.06157
-1.05623
-1.05127
-1.04416
-1.03754
-1.02738
-1.01754
-1.00294
-0.988324
-0.961997
-0.929907
-0.889929
-0.862483
-0.731545
-0.771978
-0.679443
-0.57511
-0.649418
-0.949078
-0.947333
-0.945374
-0.941566
-0.938486
-0.933728
-0.928645
-0.923184
-0.91574
-0.908371
-0.897291
-0.886857
-0.87053
-0.855487
-0.833019
-0.801942
-0.762864
-0.724499
-0.667213
-0.614144
-0.566958
-0.489875
-0.468905
-0.820882
-0.819992
-0.818981
-0.816046
-0.812939
-0.80814
-0.803152
-0.796462
-0.78943
-0.780561
-0.770623
-0.758973
-0.744887
-0.729336
-0.710003
-0.681103
-0.648951
-0.61162
-0.567481
-0.513639
-0.515968
-0.396623
-0.358077
-0.700737
-0.699967
-0.697815
-0.695309
-0.691277
-0.687666
-0.681635
-0.676358
-0.668331
-0.66089
-0.650252
-0.640182
-0.626099
-0.612703
-0.594826
-0.568515
-0.539695
-0.507707
-0.46985
-0.424044
-0.386547
-0.327616
-0.276203
-0.575505
-0.574775
-0.573435
-0.570936
-0.568196
-0.564007
-0.559757
-0.554031
-0.547771
-0.540479
-0.531851
-0.522559
-0.511105
-0.499577
-0.485236
-0.461129
-0.437893
-0.403289
-0.381305
-0.298225
-0.30377
-0.251436
-0.250212
-0.462653
-0.461776
-0.460233
-0.457612
-0.454642
-0.450544
-0.446062
-0.440891
-0.434694
-0.428465
-0.420426
-0.412948
-0.402485
-0.393412
-0.381763
-0.361993
-0.341158
-0.313821
-0.291442
-0.254231
-0.232677
-0.196389
-0.179586
-0.331177
-0.330615
-0.329408
-0.327555
-0.325237
-0.322193
-0.318808
-0.31489
-0.310501
-0.306082
-0.300915
-0.296565
-0.291176
-0.288544
-0.283874
-0.268206
-0.255961
-0.234673
-0.214719
-0.183957
-0.162049
-0.138992
-0.0996588
-0.259324
-0.258932
-0.257508
-0.255386
-0.252585
-0.249103
-0.245083
-0.240669
-0.235609
-0.230668
-0.224493
-0.218735
-0.209325
-0.196128
-0.172059
-0.148632
-0.141974
-0.13105
-0.122368
-0.112141
-0.104016
-0.11044
-0.0673716
-0.0251032
-0.0250928
-0.0249051
-0.0246729
-0.024311
-0.0238222
-0.0234
-0.0230516
-0.0228688
-0.0234077
-0.024879
-0.0302636
-0.0407586
-0.0747628
-0.129797
-0.147824
-0.140626
-0.128682
-0.110458
-0.0883533
-0.0511196
-0.0233102
-0.046101
396.244
113.146
403.336
117.626
1015.94
746.968
844.758
847.99
1411.49
1155.75
993.656
1101.22
1507.27
1344.26
1221
1197.61
1142.46
1185.59
1148.31
1127.59
267.197
393.37
652.272
857.047
7.3664
25.3056
89.5655
193.473
-6.73286
-6.04574
-2.66382
3.21695
-7.02171
-6.76271
-6.88508
-7.55933
-7.47902
-7.70837
-8.00187
-8.10226
-7.81831
-7.98809
-8.07422
-8.104
-8.01456
-8.23805
-8.58788
-9.01679
-9.16198
-9.59363
-9.74187
-10.0003
-10.1125
-11.2512
-12.6195
-13.6506
-10.4059
-11.6762
-13.277
-13.3408
-10.4599
-11.599
-12.7203
-13.4533
-10.0288
-11.204
-12.36
-13.4739
-8.43075
-9.3981
-10.5101
-11.7089
-6.98863
-7.35594
-7.9362
-7.80203
-5.65485
-5.95912
-6.16026
-5.90015
-4.72513
-4.59705
-4.49012
-4.27503
-3.92678
-3.71863
-3.43988
-3.1092
-3.25717
-3.02511
-2.73646
-2.43183
-2.75531
-2.52599
-2.26753
-1.98848
-2.34674
-2.12055
-1.88563
-1.63257
-1.94971
-1.78769
-1.58854
-1.37151
-1.62241
-1.48832
-1.36242
-1.19108
-1.3625
-1.21503
-1.05877
-0.890957
-1.12551
-0.993553
-0.855835
-0.70436
-0.927242
-0.814056
-0.694605
-0.565977
-0.769928
-0.670238
-0.564133
-0.450854
-0.652111
-0.560972
-0.467455
-0.369624
-0.574366
-0.490397
-0.397699
-0.308854
-0.481925
-0.415225
-0.335236
-0.257983
-0.364262
-0.322178
-0.259502
-0.200637
-0.407978
-0.312238
-0.24965
-0.185576
-0.232639
-0.263029
-0.189475
-0.144395
-0.176606
-0.19728
-0.141805
-0.109946
-0.130448
-0.144569
-0.103801
-0.0778393
-0.0941191
-0.090326
-0.0682366
-0.0506666
-0.0535298
-0.0459808
-0.0478288
-0.0281396
-0.0316505
-0.026555
-0.0215058
-0.0111778
6.20344
4.96219
4.60522
4.76112
4.79082
4.89598
4.96638
5.03422
5.07553
5.11804
5.11143
5.10556
5.0959
5.07437
5.05161
5.04108
5.02361
5.01646
5.01088
275.1
24.1175
5.05203
4.50067
4.75128
4.87964
4.99948
5.06876
5.10831
5.09061
5.11961
5.12343
5.11758
5.07892
5.05496
5.03568
5.01693
5.00632
5.00025
728.354
508.752
54.4828
4.81419
4.57042
4.76948
4.83667
4.99905
5.11223
5.20124
5.1621
5.15673
5.11555
5.08275
5.05057
5.02718
5.00589
4.99304
4.98607
1032.67
1032.78
468.861
83.9319
7.57559
4.91352
4.96041
5.25001
5.33458
5.25215
5.23379
5.18201
5.14037
5.08628
5.04865
5.01623
4.99212
4.97606
4.96812
1115.6
1448.1
612.442
280.498
31.745
4.4933
4.7293
5.18232
5.35941
5.31896
5.29209
5.20089
5.14083
5.08263
5.0374
5.00065
4.97302
4.95478
4.94571
1062.2
681.571
684.63
858.26
198.93
15.5166
5.44572
5.59543
5.52063
5.41406
5.33121
5.22527
5.14887
5.07725
5.02375
4.9804
4.94918
4.92843
4.9183
713.495
1007.44
1057.03
1136.97
317.014
18.3598
5.89595
5.88626
5.62292
5.48625
5.34874
5.23076
5.13905
5.06151
5.00099
4.95384
4.91924
4.89665
4.88543
165.837
1033.24
1330.49
1307.83
354.515
22.2293
6.21353
5.90735
5.71472
5.52111
5.36274
5.2284
5.12443
5.03878
4.97188
4.92051
4.88284
4.85856
4.84647
-0.441676
635.412
1468.92
1347.54
318.375
17.4998
6.50963
6.07663
5.75557
5.5247
5.34557
5.20447
5.09291
5.00422
4.93317
4.87937
4.83968
4.81413
4.80135
-7.12544
299.433
1138.51
674.411
107.305
7.70751
6.43204
6.05432
5.7112
5.48673
5.30744
5.16572
5.05074
4.96032
4.88601
4.83071
4.78905
4.76274
4.74941
-7.38266
80.7761
294.792
110.037
16.3032
5.45467
6.0789
5.81338
5.58597
5.40019
5.23743
5.10535
4.99326
4.90456
4.82942
4.77356
4.73131
4.70462
4.69106
-8.67773
23.056
34.9439
21.8701
4.77039
5.28417
5.71284
5.5713
5.43434
5.29591
5.15331
5.03398
4.92577
4.84112
4.76414
4.70919
4.66613
4.63951
4.62577
-9.98238
112.124
293.215
101.864
7.88001
4.58892
5.30803
5.33879
5.2767
5.17646
5.05563
4.94832
4.84683
4.7678
4.6908
4.63664
4.59409
4.56788
4.55434
25.5238
976.749
1416.79
479.212
49.2294
5.21063
4.99589
5.16731
5.15527
5.07365
4.96014
4.86156
4.76345
4.69164
4.60974
4.55783
4.51503
4.48962
4.4762
241.837
1433.85
1389.37
950.201
125.565
7.37156
5.09507
5.14972
5.06673
4.97057
4.85688
4.76192
4.66802
4.60648
4.51983
4.4712
4.43
4.40578
4.39297
192.09
1237.35
1339.89
746.913
96.7168
7.5844
5.11098
5.19507
5.00093
4.88899
4.76274
4.66994
4.57696
4.53669
4.42249
4.37809
4.338
4.31503
4.30272
21.2252
355.572
431.868
186.188
33.8525
6.75377
5.38572
5.11
4.89321
4.75153
4.62621
4.52861
4.44341
4.3657
4.31586
4.27749
4.24244
4.22178
4.21054
-10.9225
8.48488
18.4265
10.1669
7.60628
5.66197
4.99982
4.83389
4.68187
4.56924
4.46296
4.38196
4.30646
4.25044
4.19357
4.15809
4.12699
4.10886
4.09885
-7.46741
-4.08092
-1.00563
1.77604
3.72257
4.45248
4.55256
4.52476
4.42277
4.35057
4.27384
4.20966
4.15112
4.1026
4.06135
4.03088
4.00565
3.9904
3.9821
-5.10035
-2.79249
-0.371568
1.72727
3.15745
3.87669
4.1168
4.18011
4.13594
4.11639
4.07147
4.03002
3.98652
3.95175
3.91894
3.89529
3.87505
3.86288
3.85609
-3.42522
-1.75054
0.0397911
1.63967
2.79952
3.43852
3.73176
3.85721
3.87429
3.8789
3.8627
3.84116
3.8167
3.79346
3.77109
3.75407
3.73918
3.7305
3.7254
-2.45353
-1.14195
0.277203
1.53446
2.48421
3.07284
3.39431
3.56247
3.62245
3.6542
3.65708
3.65401
3.64285
3.63235
3.61914
3.60875
3.59928
3.59324
3.58989
-1.87015
-0.775851
0.372718
1.40362
2.20889
2.75797
3.10031
3.29143
3.38681
3.43475
3.46062
3.46949
3.47206
3.47089
3.46651
3.46161
3.45596
3.45397
3.4518
-1.47645
-0.547399
0.416919
1.28792
1.98284
2.49136
2.86107
3.04531
3.1643
3.22559
3.26119
3.2906
3.3026
3.31068
3.3135
3.3136
3.31243
3.31318
3.31264
-1.1708
-0.363372
0.435774
1.18058
1.79346
2.26426
2.64021
2.83203
2.95841
3.02736
3.07903
3.12041
3.13755
3.15461
3.16148
3.16774
3.16935
3.17296
3.17379
-0.956307
-0.266533
0.451216
1.10996
1.64096
2.05162
2.49434
2.61166
2.76549
2.83223
2.88
2.95012
2.97053
3.00014
3.01014
3.02042
3.02942
3.03386
3.03503
-0.81188
-0.116922
0.452799
1.02061
1.50768
1.89062
2.19351
2.49104
2.59126
2.63408
2.74735
2.79046
2.81569
2.85114
2.86299
2.8764
2.88676
2.89098
2.89331
-0.593381
-0.150718
0.470811
1.03208
1.37857
1.73596
2.02404
2.25402
2.47242
2.51641
2.57683
2.62213
2.65246
2.69792
2.71272
2.73304
2.74113
2.7405
2.74551
-0.427806
-0.0391158
0.353026
0.751356
1.31923
1.68379
1.99148
2.14925
2.20414
2.37049
2.40899
2.48034
2.52155
2.54199
2.56053
2.57586
2.59534
2.60029
2.60545
-0.335364
0.0138775
0.377834
0.697343
0.989591
1.29
1.54883
1.98337
2.19848
2.25839
2.2979
2.31597
2.38868
2.41472
2.43387
2.44585
2.44638
2.45929
2.45953
-0.249339
0.0444693
0.349337
0.644142
0.933371
1.18584
1.38675
1.53681
1.7296
1.8606
2.16166
2.27629
2.21237
2.25127
2.28634
2.30355
2.319
2.32909
2.33177
-0.192768
0.0622044
0.322274
0.571529
0.816028
1.04075
1.23909
1.42135
1.57469
1.68305
1.7372
1.92221
2.0696
2.19877
2.22707
2.13568
2.15855
2.16381
2.16549
-0.147839
0.071144
0.29649
0.512169
0.72111
0.911917
1.08133
1.23955
1.37784
1.48966
1.58987
1.64491
1.68649
1.75176
1.87058
2.02562
2.09207
2.10715
2.11508
-0.118202
0.0719344
0.264219
0.448862
0.626848
0.791948
0.941687
1.07731
1.19649
1.29634
1.3872
1.46949
1.53366
1.59009
1.59146
1.60224
1.59829
1.60946
1.61675
-0.0846681
0.0738001
0.237482
0.393158
0.544478
0.68363
0.811951
0.927644
1.03134
1.11981
1.19897
1.26802
1.32424
1.37497
1.41321
1.44748
1.47802
1.49301
1.50042
-0.0771201
0.0627343
0.202083
0.333311
0.459796
0.576664
0.68491
0.782291
0.870177
0.945963
1.01431
1.07316
1.1237
1.16345
1.19618
1.22491
1.24263
1.25258
1.25817
-0.0504532
0.0600915
0.17616
0.282024
0.386279
0.481114
0.570354
0.650081
0.722796
0.785645
0.842389
0.890796
0.93398
0.970711
0.999136
1.02521
1.04277
1.0493
1.05372
-0.0377913
0.0492828
0.140225
0.224088
0.305884
0.380721
0.451007
0.51385
0.571352
0.621154
0.66611
0.704113
0.737071
0.765556
0.788899
0.808701
0.823451
0.829741
0.833282
-0.0216811
0.0443775
0.114186
0.176631
0.238327
0.293879
0.346563
0.393161
0.435933
0.472825
0.50589
0.533747
0.558134
0.577274
0.593073
0.607197
0.618155
0.628537
0.632246
-0.0157372
0.0285662
0.0731171
0.114662
0.155001
0.190983
0.224893
0.254812
0.282352
0.306087
0.327355
0.345095
0.360283
0.37181
0.381479
0.390271
0.398121
0.407951
0.411645
-0.0102498
0.0231765
0.0515785
0.0794242
0.104421
0.126851
0.147655
0.165737
0.182247
0.196341
0.208863
0.219226
0.227946
0.234635
0.240165
0.244989
0.249079
0.252828
0.254648
-0.00614277
-0.00434471
-0.00948265
-0.0110231
-0.0155189
-0.0195133
-0.0237919
-0.0276857
-0.0313459
-0.034644
-0.0376199
-0.0403326
-0.0427712
-0.0449783
-0.0468592
-0.0481594
-0.0490583
-0.0494254
-0.0488264
)
;

boundaryField
{
    leftWall
    {
        type            zeroGradient;
    }
    rightWall
    {
        type            zeroGradient;
    }
    lowerWall
    {
        type            zeroGradient;
    }
    atmosphere
    {
        type            totalPressure;
        rho             rho;
        psi             none;
        gamma           1;
        p0              uniform 0;
        value           nonuniform List<scalar> 
46
(
-0.0520479
-0.0525368
-0.0517866
-0.0507145
-0.0492832
-0.04756
-0.0455864
-0.0434763
-0.0411602
-0.0390567
-0.0366807
-0.0355832
-0.0338965
-0.0378064
-0.0413423
-0.0378701
-0.0338762
-0.0268696
-0.0208789
-0.0139818
-0.00894835
-0.00492536
-0.00298732
-0.00119025
-0.000542604
-0.000547713
0
0
0
0
0
0
0
0
0
0
0
0
0
0
0
0
0
0
0
0
)
;
    }
    defaultFaces
    {
        type            empty;
    }
}


// ************************************************************************* //
