/*--------------------------------*- C++ -*----------------------------------*\
| =========                 |                                                 |
| \\      /  F ield         | foam-extend: Open Source CFD                    |
|  \\    /   O peration     | Version:     4.1                                |
|   \\  /    A nd           | Web:         http://www.foam-extend.org         |
|    \\/     M anipulation  |                                                 |
\*---------------------------------------------------------------------------*/
FoamFile
{
    version     2.0;
    format      ascii;
    class       surfaceScalarField;
    location    "0.2";
    object      phi;
}
// * * * * * * * * * * * * * * * * * * * * * * * * * * * * * * * * * * * * * //

dimensions      [0 3 -1 0 0 0 0];

internalField   nonuniform List<scalar> 
4432
(
4.10942e-06
-4.10942e-06
8.20162e-06
-4.0922e-06
1.30273e-05
-4.82566e-06
1.61604e-05
-3.13317e-06
2.19657e-05
-5.80521e-06
2.67877e-05
-4.82201e-06
3.13189e-05
-4.53125e-06
3.54541e-05
-4.13515e-06
3.8429e-05
-2.97496e-06
4.03125e-05
-1.88347e-06
6.4567e-05
-2.42545e-05
7.34235e-05
-8.85648e-06
8.03255e-05
-6.90202e-06
8.63449e-05
-6.01941e-06
8.86698e-05
-2.32485e-06
8.88227e-05
-1.52967e-07
8.71323e-05
1.69039e-06
8.45445e-05
2.58785e-06
7.98415e-05
4.70296e-06
6.9748e-05
1.00935e-05
5.18231e-05
1.79249e-05
3.01286e-05
2.16945e-05
3.01286e-05
4.13023e-06
-8.23964e-06
8.26761e-06
-8.22957e-06
1.3046e-05
-9.60408e-06
1.62492e-05
-6.33637e-06
2.21421e-05
-1.1698e-05
2.68865e-05
-9.56647e-06
3.14219e-05
-9.06658e-06
3.55887e-05
-8.30203e-06
3.86491e-05
-6.03528e-06
4.10127e-05
-4.24711e-06
6.27836e-05
-4.60254e-05
7.14668e-05
-1.75396e-05
7.88631e-05
-1.42984e-05
8.44884e-05
-1.16447e-05
8.67667e-05
-4.60321e-06
8.69667e-05
-3.52936e-07
8.50631e-05
3.59397e-06
8.23974e-05
5.25359e-06
7.84153e-05
8.68505e-06
6.69588e-05
2.15501e-05
5.20272e-05
3.28565e-05
2.97889e-05
4.39328e-05
5.99175e-05
4.10986e-06
-1.23495e-05
8.28664e-06
-1.24063e-05
1.29598e-05
-1.42772e-05
1.63357e-05
-9.71231e-06
2.21586e-05
-1.75209e-05
2.67533e-05
-1.41611e-05
3.11801e-05
-1.34934e-05
3.68864e-05
-1.40084e-05
3.8157e-05
-7.3059e-06
6.94286e-05
-3.55187e-05
6.3798e-05
-4.03949e-05
7.03079e-05
-2.40495e-05
7.6863e-05
-2.08535e-05
8.0012e-05
-1.47937e-05
8.29137e-05
-7.50487e-06
8.43083e-05
-1.74754e-06
8.21644e-05
5.73781e-06
7.97992e-05
7.6188e-06
7.6822e-05
1.16623e-05
6.89109e-05
2.94612e-05
5.34833e-05
4.8284e-05
3.58122e-05
6.16039e-05
9.57297e-05
4.10271e-06
-1.64522e-05
8.33783e-06
-1.66414e-05
1.28811e-05
-1.88205e-05
1.67465e-05
-1.35776e-05
2.22626e-05
-2.3037e-05
2.61366e-05
-1.80352e-05
3.2473e-05
-1.98298e-05
3.55344e-05
-1.70697e-05
6.06105e-05
-3.2382e-05
6.24424e-05
-3.73506e-05
6.02601e-05
-3.82126e-05
6.48646e-05
-2.8654e-05
6.97714e-05
-2.57603e-05
7.38419e-05
-1.88642e-05
7.78904e-05
-1.15534e-05
8.08505e-05
-4.70762e-06
8.22305e-05
4.35784e-06
8.17416e-05
8.10774e-06
7.89469e-05
1.44569e-05
6.94911e-05
3.8917e-05
5.4387e-05
6.33881e-05
3.34646e-05
8.25263e-05
0.000129194
4.06167e-06
-2.05139e-05
8.32109e-06
-2.09009e-05
1.29025e-05
-2.34019e-05
1.70601e-05
-1.77353e-05
2.18784e-05
-2.78553e-05
2.58617e-05
-2.20185e-05
3.22666e-05
-2.62347e-05
3.39744e-05
-1.87775e-05
5.35426e-05
-5.19502e-05
5.44401e-05
-3.8248e-05
5.44635e-05
-3.8236e-05
6.2122e-05
-3.63125e-05
6.79668e-05
-3.16051e-05
7.29294e-05
-2.38268e-05
7.69022e-05
-1.55262e-05
8.11516e-05
-8.95708e-06
8.49018e-05
6.07714e-07
8.55311e-05
7.47839e-06
8.35512e-05
1.64368e-05
7.47476e-05
4.77206e-05
6.19185e-05
7.62172e-05
4.56525e-05
9.87922e-05
0.000174847
4.05665e-06
-2.45706e-05
8.3253e-06
-2.51695e-05
1.28577e-05
-2.79343e-05
1.71733e-05
-2.20509e-05
2.18264e-05
-3.25083e-05
2.71279e-05
-2.732e-05
2.95198e-05
-2.86267e-05
4.9158e-05
-3.84157e-05
4.64296e-05
-4.92218e-05
5.03701e-05
-4.21885e-05
5.51936e-05
-4.30595e-05
6.28963e-05
-4.40151e-05
6.89461e-05
-3.7655e-05
7.52411e-05
-3.01217e-05
7.93849e-05
-1.967e-05
8.58794e-05
-1.54516e-05
8.8756e-05
-2.26889e-06
8.88807e-05
7.35377e-06
8.79204e-05
1.73971e-05
8.10379e-05
5.46031e-05
7.00626e-05
8.71926e-05
4.90316e-05
0.000119823
0.000223879
3.97776e-06
-2.85483e-05
8.3221e-06
-2.95138e-05
1.28641e-05
-3.24763e-05
1.70956e-05
-2.62824e-05
2.20639e-05
-3.74767e-05
2.43724e-05
-2.96285e-05
2.49012e-05
-2.91555e-05
4.2013e-05
-5.55275e-05
4.32532e-05
-5.0462e-05
4.88923e-05
-4.78276e-05
5.60243e-05
-5.01916e-05
6.4211e-05
-5.22018e-05
7.10067e-05
-4.44507e-05
7.75348e-05
-3.66498e-05
8.19346e-05
-2.40698e-05
8.866e-05
-2.21771e-05
9.40123e-05
-7.62111e-06
9.39969e-05
7.36918e-06
9.45152e-05
1.68787e-05
8.50465e-05
6.40718e-05
8.14381e-05
9.0801e-05
3.97124e-05
0.000161549
0.000263591
4.02836e-06
-3.25767e-05
8.39926e-06
-3.38847e-05
1.26247e-05
-3.67017e-05
1.66316e-05
-3.02893e-05
2.10432e-05
-4.18882e-05
2.13069e-05
-2.98922e-05
3.84558e-05
-4.63044e-05
3.95289e-05
-5.66005e-05
4.2575e-05
-5.35082e-05
5.02359e-05
-5.54884e-05
5.83879e-05
-5.83436e-05
6.63292e-05
-6.01431e-05
7.30722e-05
-5.11937e-05
7.95391e-05
-4.31167e-05
8.54941e-05
-3.00248e-05
9.22618e-05
-2.89447e-05
9.8495e-05
-1.38543e-05
0.000101986
3.87772e-06
0.000101441
1.7424e-05
9.50824e-05
7.04306e-05
9.19053e-05
9.39781e-05
4.14857e-05
0.000211968
0.000305077
-2.23324e-06
2.23324e-06
-3.22537e-06
9.9209e-07
-5.69289e-06
2.46748e-06
-7.11276e-06
1.41987e-06
-6.77825e-06
-3.34503e-07
-6.19423e-06
-5.84075e-07
-4.40802e-06
-1.78624e-06
-2.35925e-06
-2.04878e-06
-3.08712e-07
-2.05054e-06
1.66572e-06
-1.97437e-06
3.36795e-06
-1.70225e-06
4.95957e-06
-1.59157e-06
5.68817e-06
-7.28521e-07
7.0889e-06
-1.40072e-06
7.38365e-06
-2.94645e-07
4.077e-06
3.30657e-06
2.84249e-06
1.23461e-06
1.38062e-06
1.46181e-06
1.38076e-06
-2.46924e-06
4.70244e-06
-4.11266e-06
2.63548e-06
-5.90488e-06
4.25967e-06
-7.39265e-06
2.90758e-06
-6.87946e-06
-8.4772e-07
-5.96465e-06
-1.49896e-06
-3.92131e-06
-3.8296e-06
-1.74754e-06
-4.22248e-06
4.58417e-07
-4.2565e-06
2.51582e-06
-4.03169e-06
4.4311e-06
-3.61746e-06
5.9978e-06
-3.15825e-06
6.39133e-06
-1.12187e-06
8.1063e-06
-3.11579e-06
4.34606e-06
3.46571e-06
4.35736e-06
3.29515e-06
2.99613e-06
2.596e-06
1.48902e-06
2.96886e-06
2.86987e-06
-2.143e-06
6.84541e-06
-3.65485e-06
4.1473e-06
-6.67099e-06
7.27579e-06
-8.5787e-06
4.81521e-06
-7.62297e-06
-1.80349e-06
-6.42343e-06
-2.69856e-06
-4.18481e-06
-6.06824e-06
-1.73604e-06
-6.67117e-06
5.79795e-07
-6.57227e-06
2.91745e-06
-6.36937e-06
4.81324e-06
-5.51322e-06
5.99146e-06
-4.33646e-06
6.89502e-06
-2.0253e-06
4.68499e-06
-9.05963e-07
4.57089e-06
3.57986e-06
4.316e-06
3.54994e-06
3.01601e-06
3.89604e-06
1.50531e-06
4.4795e-06
4.37522e-06
-4.03578e-06
1.08812e-05
-3.2707e-06
3.38216e-06
-7.04532e-06
1.10504e-05
-9.69769e-06
7.46751e-06
-9.34872e-06
-2.15249e-06
-7.42982e-06
-4.61747e-06
-4.66172e-06
-8.83628e-06
-1.85495e-06
-9.47789e-06
7.05145e-07
-9.13235e-06
3.00145e-06
-8.66565e-06
5.34283e-06
-7.85456e-06
6.73863e-06
-5.73234e-06
7.50584e-06
-2.79245e-06
5.17303e-06
1.42671e-06
8.75112e-06
1.82987e-09
4.39705e-06
7.90387e-06
3.10445e-06
5.18865e-06
1.51906e-06
6.06483e-06
5.89425e-06
-9.77522e-07
1.18587e-05
-4.94809e-06
7.35265e-06
-8.69977e-06
1.4802e-05
-1.24251e-05
1.11927e-05
-1.10165e-05
-3.56103e-06
-8.28804e-06
-7.34592e-06
-5.05654e-06
-1.20677e-05
-1.90398e-06
-1.26304e-05
8.18031e-07
-1.18544e-05
3.62599e-06
-1.14736e-05
5.67478e-06
-9.90328e-06
8.36327e-06
-8.42093e-06
8.49699e-06
-2.92615e-06
9.91045e-06
1.3164e-08
4.99579e-06
4.91656e-06
4.49193e-06
8.40768e-06
3.0297e-06
6.65096e-06
1.52083e-06
7.57363e-06
7.41505e-06
-1.46841e-06
1.3327e-05
-4.68397e-06
1.05681e-05
-1.18326e-05
2.19506e-05
-1.7253e-05
1.66131e-05
-1.52093e-05
-5.60466e-06
-9.96695e-06
-1.25882e-05
-5.30645e-06
-1.67282e-05
-1.59731e-06
-1.63394e-05
7.9034e-07
-1.4242e-05
3.82064e-06
-1.4504e-05
7.45617e-06
-1.35388e-05
4.56808e-06
-5.53294e-06
4.7934e-06
-3.15146e-06
5.85501e-06
-1.04844e-06
5.07353e-06
5.69814e-06
4.44668e-06
9.03457e-06
3.04355e-06
8.05426e-06
1.53511e-06
9.082e-06
8.95018e-06
-4.48749e-06
1.78145e-05
-5.17813e-06
1.12587e-05
-2.32112e-05
3.99836e-05
-1.28823e-05
6.28416e-06
-1.87065e-05
2.19501e-07
-1.26333e-05
-1.86613e-05
-6.79005e-06
-2.25714e-05
-2.00654e-06
-2.1123e-05
9.3145e-07
-1.71801e-05
3.3112e-06
-1.68838e-05
4.27417e-06
-1.45018e-05
9.91461e-06
-1.11734e-05
1.02627e-05
-3.49948e-06
6.17529e-06
3.039e-06
5.47104e-06
6.40253e-06
4.50953e-06
9.9961e-06
3.07187e-06
9.49203e-06
1.555e-06
1.05988e-05
1.05052e-05
-4.1993e-06
2.20137e-05
-1.68746e-05
2.3934e-05
-1.9979e-05
4.3088e-05
-1.83033e-05
4.60845e-06
-1.34041e-05
-4.67968e-06
-8.84883e-06
-2.32166e-05
-4.31368e-06
-2.71066e-05
-1.0534e-06
-2.43833e-05
1.59513e-06
-1.98286e-05
6.92603e-06
-2.22147e-05
9.1245e-06
-1.67002e-05
1.0701e-05
-1.27499e-05
1.13599e-05
-4.15829e-06
6.74783e-06
7.65113e-06
5.75816e-06
7.39225e-06
4.6154e-06
1.11388e-05
3.12502e-06
1.09824e-05
1.58129e-06
1.21424e-05
1.20864e-05
8.12811e-06
-4.07048e-05
1.72205e-05
-4.29772e-05
2.32772e-05
-4.27584e-05
3.29452e-05
-3.99573e-05
3.80014e-05
-4.69444e-05
6.42656e-05
-5.61563e-05
7.50882e-05
-5.7127e-05
8.12018e-05
-6.27141e-05
9.00213e-05
-6.23277e-05
0.000109034
-7.45014e-05
0.00012724
-7.65489e-05
0.000141797
-7.47009e-05
0.000159833
-6.92288e-05
0.000176563
-5.98467e-05
0.000189977
-4.3439e-05
0.000210274
-4.9242e-05
0.000224047
-2.7627e-05
0.000230097
-2.17303e-06
0.000238369
9.15207e-06
0.000225351
8.34491e-05
0.000159952
0.000159377
0.000138717
0.000233203
0.000160883
0.000282911
7.32224e-06
-4.8027e-05
1.64999e-05
-5.21548e-05
2.27403e-05
-4.89988e-05
4.27412e-05
-5.99582e-05
5.17475e-05
-5.59507e-05
5.89134e-05
-6.33222e-05
6.80453e-05
-6.62589e-05
7.67852e-05
-7.14539e-05
9.02444e-05
-7.5787e-05
0.000110085
-9.43422e-05
0.000126054
-9.25174e-05
0.000148904
-9.75516e-05
0.000169773
-9.00975e-05
0.000188319
-7.83924e-05
0.000189655
-4.47755e-05
0.000217565
-7.71519e-05
0.000213355
-2.3417e-05
0.000218681
-7.49913e-06
0.000171255
5.65784e-05
0.000186224
6.84803e-05
0.000193629
0.000151972
0.000326798
0.000100034
0.000134497
0.000353184
1.06286e-05
-5.86556e-05
2.06288e-05
-6.21551e-05
3.19001e-05
-6.02701e-05
3.9501e-05
-6.75591e-05
4.87822e-05
-6.52318e-05
5.60199e-05
-7.056e-05
6.57687e-05
-7.60077e-05
7.39105e-05
-7.95957e-05
8.55267e-05
-8.74032e-05
0.000101338
-0.000110153
0.000121801
-0.000112981
0.000148259
-0.00012401
0.000168513
-0.000110352
0.00016766
-7.75391e-05
0.00019117
-6.8285e-05
0.00022428
-0.000110263
0.000261181
-6.03175e-05
0.000290237
-3.65551e-05
0.000320472
2.63429e-05
0.000342806
4.6146e-05
0.000384453
0.000110326
0.000349366
0.00013512
0.000118718
0.000365145
1.10382e-05
-6.96938e-05
2.12207e-05
-7.23377e-05
3.12801e-05
-7.03295e-05
3.78579e-05
-7.41369e-05
4.64734e-05
-7.38473e-05
5.35951e-05
-7.76817e-05
5.80677e-05
-8.04803e-05
6.26461e-05
-8.41742e-05
7.08223e-05
-9.55793e-05
8.70892e-05
-0.00012642
0.000121823
-0.000147715
0.000147421
-0.000149607
0.000126686
-8.96176e-05
0.000134309
-8.51618e-05
0.000207395
-0.000141371
0.000248822
-0.00015169
0.000281794
-9.32893e-05
0.000322722
-7.7484e-05
0.000359896
-1.08302e-05
0.000379503
2.65383e-05
0.000395112
9.47173e-05
0.000418721
0.000111511
0.000146811
0.000390629
9.96595e-06
-7.96597e-05
1.8876e-05
-8.12477e-05
2.81458e-05
-7.95994e-05
3.61985e-05
-8.21895e-05
4.2952e-05
-8.06009e-05
4.7427e-05
-8.21567e-05
4.98638e-05
-8.29171e-05
5.25895e-05
-8.68999e-05
5.43285e-05
-9.73184e-05
7.0017e-05
-0.000142108
0.000105565
-0.000183263
0.000129562
-0.000173604
0.000143541
-0.000103596
0.000162604
-0.000104224
0.000221
-0.000199767
0.00027715
-0.00020784
0.000282949
-9.90889e-05
0.000199942
5.52362e-06
0.000220064
-3.09527e-05
0.00023503
1.15728e-05
0.000386271
-5.65239e-05
0.000407916
8.98659e-05
0.000157976
0.00039675
1.00414e-05
-8.97011e-05
1.94236e-05
-9.06299e-05
2.89345e-05
-8.91103e-05
3.59822e-05
-8.92371e-05
4.22286e-05
-8.68473e-05
4.61992e-05
-8.61273e-05
4.63594e-05
-8.30773e-05
4.02622e-05
-8.08026e-05
3.73213e-05
-9.43775e-05
6.07145e-05
-0.000165502
0.000103114
-0.000225663
0.000119814
-0.000190304
0.00013188
-0.000115662
0.00015747
-0.000129814
0.000205622
-0.000247919
0.00026242
-0.000264638
0.00030331
-0.000139979
0.000324788
-1.59545e-05
0.000329557
-3.5722e-05
0.000338747
2.38262e-06
0.000295515
-1.32918e-05
0.000242451
0.000142931
3.4584e-05
0.000365843
9.98012e-06
-9.96813e-05
1.95135e-05
-0.000100163
2.85538e-05
-9.81507e-05
3.63814e-05
-9.70647e-05
4.31785e-05
-9.36444e-05
4.66628e-05
-8.96116e-05
4.41004e-05
-8.05149e-05
3.28773e-05
-6.95795e-05
3.80813e-05
-9.95815e-05
6.56373e-05
-0.000193057
7.63233e-05
-0.000236349
7.4708e-05
-0.000188689
0.000103039
-0.000143994
0.000128313
-0.000155087
0.000147606
-0.000267212
0.000165081
-0.000282113
0.000260689
-0.000235586
0.000345554
-0.00010082
0.000360016
-5.01836e-05
0.000359099
3.29939e-06
0.000333126
1.26809e-05
0.000403038
7.30191e-05
0.000102444
0.000335178
1.07808e-05
-0.000110462
2.0705e-05
-0.000110087
3.08036e-05
-0.000108249
3.9103e-05
-0.000105364
4.60932e-05
-0.000100635
5.01033e-05
-9.36217e-05
4.40494e-05
-7.4461e-05
2.97168e-05
-5.52469e-05
3.54947e-05
-0.000105359
3.80772e-05
-0.00019564
3.65899e-05
-0.000234861
6.36905e-05
-0.000215789
9.42379e-05
-0.000174541
0.000117458
-0.000178308
0.000133257
-0.000283011
0.000168262
-0.000317118
0.000202147
-0.000269472
0.000230412
-0.000129085
0.000260231
-8.00024e-05
0.000293157
-2.96267e-05
0.000299604
6.23384e-06
0.000311646
6.09768e-05
0.000151714
0.000262376
1.0779e-05
-0.000121241
2.17477e-05
-0.000121056
3.18999e-05
-0.000118401
4.22741e-05
-0.000115738
4.98387e-05
-0.000108199
5.44241e-05
-9.82071e-05
3.95355e-05
-5.95725e-05
3.54841e-05
-5.11955e-05
2.98818e-05
-9.97571e-05
2.61252e-05
-0.000191883
8.11613e-05
-0.000289897
0.00019373
-0.000328358
0.000215834
-0.000196645
0.000231736
-0.00019421
0.000195468
-0.000246743
0.000187674
-0.000309324
0.000162299
-0.000244097
0.000180671
-0.000147456
0.000176204
-7.5536e-05
0.000219926
-7.33483e-05
0.000242762
-1.6602e-05
0.000321152
-1.74131e-05
2.22695e-05
0.000450595
1.33142e-05
-0.000134555
2.44672e-05
-0.000132209
3.55592e-05
-0.000129494
4.83994e-05
-0.000128578
5.84277e-05
-0.000118228
6.69306e-05
-0.00010671
5.52519e-05
-4.78938e-05
6.75621e-05
-6.35057e-05
8.77082e-05
-0.000119903
0.00012438
-0.000228556
0.000159694
-0.000325212
0.000177975
-0.000346639
0.000186158
-0.000204828
0.000206592
-0.000214644
0.0002761
-0.000316251
0.000132849
-0.000166073
0.000113436
-0.000224684
0.00010179
-0.000135811
0.000127151
-0.000100897
0.000146256
-9.24532e-05
0.000203706
-7.40518e-05
0.000214714
-2.84213e-05
-8.76209e-06
0.000245746
9.47301e-06
-0.000144028
2.4536e-05
-0.000147272
4.03303e-05
-0.000145288
5.63658e-05
-0.000144614
8.66652e-05
-0.000148527
0.000130977
-0.000151021
0.00017397
-9.08868e-05
0.000226616
-0.000116152
0.000278558
-0.000171845
0.000323203
-0.000273201
0.000346171
-0.000348179
0.000332176
-0.000332644
0.000312237
-0.000184889
0.000349885
-0.000252292
0.000215246
-0.000181612
0.000179076
-0.000129904
0.000154527
-0.000200135
0.000132009
-0.000113292
9.9809e-05
-6.86975e-05
0.000102901
-9.55456e-05
8.49851e-05
-5.61354e-05
0.000108762
-5.21977e-05
-0.000105416
0.000205416
7.09156e-06
-0.00015112
1.55953e-05
-0.000155776
3.44196e-05
-0.000164112
5.1131e-05
-0.000161325
5.74461e-05
-0.000154842
9.57456e-05
-0.000189321
0.000168072
-0.000163213
0.000324557
-0.000272637
0.000311264
-0.000158552
0.000362486
-0.000324423
0.00024204
-0.000227733
0.00033394
-0.000424544
0.000329099
-0.000180048
0.000310643
-0.000233837
0.000242125
-0.000113094
0.000232708
-0.000120486
0.000124912
-9.23396e-05
8.4891e-05
-7.3271e-05
7.09091e-05
-5.47156e-05
4.61197e-05
-7.07561e-05
7.53182e-05
-8.5334e-05
0.000108718
-8.55976e-05
-0.000169368
0.00017267
5.14236e-06
-0.000156262
7.2312e-06
-0.000157864
2.69891e-05
-0.00018387
3.88658e-05
-0.000173202
5.97991e-05
-0.000175775
6.79461e-05
-0.000197468
0.000161876
-0.000257143
0.000195702
-0.000306463
0.000243134
-0.000205984
0.000154575
-0.000235864
0.000191731
-0.000264888
0.000195204
-0.000428017
0.000249505
-0.000234349
0.000169305
-0.000153636
0.000164405
-0.000108194
0.000116957
-7.30391e-05
4.70808e-05
-2.2463e-05
1.98552e-05
-4.60452e-05
2.88396e-05
-6.36999e-05
4.36518e-05
-8.55684e-05
5.57788e-05
-9.7461e-05
0.000179956
-0.000209774
-0.000183786
0.000194374
2.20076e-06
-0.000158463
5.22915e-06
-0.000160893
1.3519e-05
-0.00019216
1.30681e-05
-0.000172751
2.11774e-05
-0.000183885
3.92252e-05
-0.000215516
6.80507e-05
-0.000285968
9.61431e-05
-0.000334556
0.000142506
-0.000252347
0.00017209
-0.000265449
0.000190649
-0.000283447
2.12293e-05
-0.000258598
-2.31214e-05
-0.000189998
-4.82782e-05
-0.00012848
-2.16268e-05
-0.000134845
-2.26152e-05
-7.20507e-05
-3.43982e-05
-1.068e-05
-4.11063e-05
-3.93371e-05
-1.9983e-05
-8.48233e-05
4.0616e-06
-0.000109613
5.62996e-05
-0.000149699
8.57153e-05
-0.00023919
-0.000268326
0.000170254
1.10188e-06
-0.000159565
4.94928e-06
-0.00016474
9.7482e-06
-0.000196959
9.1311e-06
-0.000172134
5.13936e-06
-0.000179893
1.22057e-05
-0.000222582
3.66805e-07
-0.000274129
-2.8408e-05
-0.000305781
3.78005e-05
-0.000318556
1.01674e-05
-0.000237815
-4.53875e-05
-0.000227892
-0.000143361
-0.000160624
-0.000192679
-0.000140681
-0.000113497
-0.000207661
-0.000141811
-0.000106532
-0.000144717
-6.91444e-05
-8.61863e-05
-6.92108e-05
-7.75066e-05
-4.80166e-05
-2.95476e-05
-0.000132782
3.25666e-06
-0.000142417
-5.08539e-06
-0.000141357
1.75198e-05
-0.000261795
-0.000287287
3.64816e-05
-4.8329e-07
-0.000159081
1.29896e-07
-0.000165353
1.70456e-06
-0.000198533
2.28284e-06
-0.000172712
-4.34414e-07
-0.000177175
-3.26938e-06
-0.000219747
-2.49283e-05
-0.00025247
-5.80862e-05
-0.000272623
-9.46404e-05
-0.000282001
-5.24357e-05
-0.00028002
-0.000105711
-0.000174617
-0.000117594
-0.000148741
-0.000130283
-0.000127992
-0.00014164
-0.000196304
-0.000174136
-7.40357e-05
-0.000166688
-7.65921e-05
-0.000157562
-7.83371e-05
-0.000129567
-7.60116e-05
-0.000109009
-0.000153341
-0.000122154
-0.000129271
-4.39019e-05
-0.000219609
-3.58421e-05
-0.000269855
-0.000295521
-2.76084e-05
-1.24549e-06
-0.000157836
-8.61405e-07
-0.000165737
-8.01977e-07
-0.000198593
-2.02366e-06
-0.000171491
-1.50143e-05
-0.000164185
-3.02109e-05
-0.00020455
-4.96511e-05
-0.00023303
-6.86981e-05
-0.000253576
-7.02913e-05
-0.000280408
-8.88812e-05
-0.00026143
-0.000107746
-0.000155752
-0.000132312
-0.000124174
-0.000142602
-0.000117702
-0.000250175
-8.87313e-05
-0.0002112
-0.000113011
-0.00019181
-9.59822e-05
-0.000171874
-9.82726e-05
-0.000166508
-8.1378e-05
-0.000179342
-0.000140507
-0.000162228
-0.000146385
-0.000184513
-0.000197324
-0.000204525
-0.000249843
-0.000294276
-0.00020577
-1.96355e-06
-0.000155872
-1.94598e-06
-0.000165755
9.67132e-07
-0.000201506
9.8996e-06
-0.000180423
-3.55764e-05
-0.000118709
-4.4558e-05
-0.000195569
-6.50938e-05
-0.000212494
-9.57793e-05
-0.000222891
-0.000131409
-0.000244779
-0.000158201
-0.000234638
-0.000185575
-0.000128378
-0.000160258
-0.000149492
-0.000160964
-0.000116995
-0.000110561
-0.000139135
-0.000166151
-5.74204e-05
-0.000181268
-8.08659e-05
-0.000201108
-7.8432e-05
-0.000169862
-0.000112625
-0.000189981
-0.000120387
-0.000203369
-0.000132997
-0.000230085
-0.000170608
-0.00026906
-0.000210868
-0.000247305
-0.000316032
-9.78112e-06
-0.000146091
-3.07714e-05
-0.000144765
-9.91891e-06
-0.000222358
-4.25857e-05
-0.000147756
-1.08215e-05
-0.000150473
-4.45594e-05
-0.000161831
-9.70229e-05
-0.000160031
-6.51919e-05
-0.000254722
-0.00014814
-0.000161831
-0.000115261
-0.000267516
-0.000119991
-0.000123648
-0.000133525
-0.000135958
-0.00014522
-0.0001053
-0.000158745
-0.00012561
-0.000102356
-0.000113809
-0.000134892
-4.83299e-05
-0.000114502
-9.88222e-05
-0.000166583
-6.05431e-05
-0.00018761
-9.93606e-05
-0.000207939
-0.000112668
-0.000234322
-0.000144226
-0.000273901
-0.000171288
-0.000179727
-0.00034148
5.11676e-06
-0.000151208
1.10884e-05
-0.000150736
-4.39445e-05
-0.000167325
-3.34008e-05
-0.0001583
-2.67632e-05
-0.000157111
-3.35658e-05
-0.000155028
-3.65226e-05
-0.000157074
-0.000132923
-0.000158321
-6.20432e-05
-0.00023271
-0.000170696
-0.000158863
-0.000139296
-0.000155048
-0.000147099
-0.000128156
-9.85447e-05
-0.000153854
-0.000142065
-8.20897e-05
-0.000165253
-9.06214e-05
-0.000140441
-7.31422e-05
-0.00013166
-0.000107603
-0.000106046
-8.61572e-05
-0.000105068
-0.000100339
-0.000108529
-0.000109206
-0.000124126
-0.000128629
-0.000147933
-0.000147482
-0.000139672
-0.000187988
-4.45064e-06
-0.000146757
-7.83012e-06
-0.000147357
-1.9878e-05
-0.000155278
-2.64699e-05
-0.000151708
-2.93046e-05
-0.000154276
-3.65061e-05
-0.000147827
-6.31396e-05
-0.00013044
-8.857e-05
-0.000132891
-0.000113439
-0.000207841
-6.46437e-05
-0.000207659
-9.0066e-05
-0.000129626
-0.000107758
-0.000110464
-0.000171734
-8.9877e-05
-0.00016107
-9.27543e-05
-0.000152362
-9.93286e-05
-0.000133896
-9.16083e-05
-0.000125137
-0.000116362
-0.000109427
-0.000101867
-0.00011293
-9.68364e-05
-0.00011856
-0.000103576
-0.000133421
-0.000113768
-0.000158618
-0.000122285
-0.000104014
-0.000194275
-5.68487e-06
-0.000141073
-1.02051e-05
-0.000142837
-2.19501e-05
-0.000143533
-3.13671e-05
-0.000142291
-5.1793e-05
-0.00013385
-5.7872e-05
-0.000141748
-6.78019e-05
-0.00012051
-2.88076e-05
-0.000171885
-4.42278e-05
-0.000192421
-0.000131191
-0.000120695
-0.000148048
-0.000112769
-0.000155493
-0.000103019
-0.000146823
-9.85463e-05
-0.000139896
-9.96817e-05
-0.000137868
-0.000101357
-0.000115625
-0.000113851
-0.000117804
-0.000114183
-0.000112574
-0.000107097
-0.000119678
-8.97318e-05
-0.000126733
-9.65215e-05
-0.000139399
-0.000101102
-0.000160781
-0.000100904
-8.06054e-05
-0.000184189
-9.92469e-06
-0.000131148
-1.79164e-05
-0.000134845
-3.13679e-05
-0.000130081
-5.8678e-05
-0.000114981
-1.83018e-05
-0.000174226
-4.42162e-05
-0.000115834
-1.30673e-05
-0.000151659
-3.35836e-05
-0.000151369
-5.27715e-05
-0.000173233
-8.10185e-05
-9.24482e-05
-9.69793e-05
-9.68084e-05
-0.000109142
-9.08564e-05
-0.000115244
-9.24448e-05
-0.000119174
-9.57518e-05
-0.000118445
-0.000102085
-7.37917e-05
-0.000158505
-0.000108887
-7.90884e-05
-0.00010725
-0.000108734
-0.000122787
-7.4195e-05
-0.000127613
-9.16957e-05
-0.000139247
-8.94675e-05
-0.000158747
-8.14039e-05
-6.16659e-05
-0.000177687
-9.80916e-06
-0.000121339
-2.13194e-05
-0.000123335
-3.85464e-05
-0.000112854
-8.43848e-06
-0.000145089
-3.29345e-05
-0.00014973
-1.12809e-05
-0.000137487
-2.5112e-05
-0.000137828
-3.97573e-05
-0.000136724
-7.51393e-05
-0.000137851
-8.543e-05
-8.21574e-05
-9.63981e-05
-8.58402e-05
-0.00010268
-8.45746e-05
-0.000107997
-8.7128e-05
-0.000113845
-8.99029e-05
-8.36842e-05
-0.000132246
-0.000144782
-9.74068e-05
-9.68255e-05
-0.000127045
-0.000104159
-0.0001014
-0.000114556
-6.37984e-05
-0.0001273
-7.89511e-05
-0.000136145
-8.06229e-05
-0.000150602
-6.69462e-05
-4.80696e-05
-0.000164199
-9.89117e-07
-0.00012035
2.04888e-06
-0.000126373
1.40395e-05
-0.000124845
-3.64542e-06
-0.000127404
-2.22246e-05
-0.000131151
-2.58641e-05
-0.000133847
-2.03774e-05
-0.000143315
-5.36853e-05
-0.000103416
-9.47043e-05
-9.68322e-05
-8.72408e-05
-8.96209e-05
-8.83073e-05
-8.47737e-05
-9.00111e-05
-8.28708e-05
-9.41867e-05
-8.29524e-05
-9.42866e-05
-8.9803e-05
-8.80801e-05
-0.000138453
-9.71258e-05
-8.83612e-05
-8.11875e-05
-0.000142983
-0.000110949
-7.16392e-05
-0.000111564
-6.31828e-05
-0.000113973
-7.65426e-05
-0.000125554
-6.90414e-05
-0.000143807
-4.86932e-05
-3.44172e-05
-0.000157459
-2.56299e-06
-0.000117787
-4.024e-06
-0.000124912
-7.11196e-06
-0.000121757
-1.16161e-05
-0.0001229
-2.01418e-05
-0.000122626
-2.28693e-05
-0.00013112
-5.66852e-05
-0.000109499
-5.70301e-05
-0.000103071
-6.87402e-05
-8.51222e-05
-7.4851e-05
-8.35102e-05
-8.40367e-05
-7.5588e-05
-9.23499e-05
-7.45577e-05
-0.000102777
-7.25255e-05
-7.89561e-05
-0.000113624
-8.90949e-05
-0.000128314
-9.68009e-05
-8.06552e-05
-0.000149474
-9.03106e-05
-9.60478e-05
-0.000125065
-0.000106577
-5.2654e-05
-0.000113247
-6.98725e-05
-0.000128115
-5.4173e-05
-0.000131865
-4.49428e-05
-2.71448e-05
-0.000139138
-2.34038e-06
-0.000115446
9.94052e-07
-0.000128246
8.79963e-06
-0.000129563
-1.65152e-05
-9.75854e-05
-3.13363e-05
-0.000107805
-5.22837e-05
-0.000110173
-5.25853e-05
-0.000109197
-7.02939e-05
-8.53627e-05
-7.14083e-05
-8.40077e-05
-7.6823e-05
-7.80955e-05
-7.87217e-05
-7.36893e-05
-8.28641e-05
-7.04154e-05
-8.81014e-05
-6.72882e-05
-9.03819e-05
-0.000111343
-0.00010239
-0.000116306
-8.0541e-05
-0.000102504
-9.63992e-05
-7.44524e-05
-0.000144168
-7.72964e-05
-8.75585e-05
-0.000109263
-0.000109126
-4.83054e-05
-0.000117461
-4.58377e-05
-0.000126488
-3.59158e-05
-2.05922e-05
-0.00013304
-5.79474e-06
-0.000109651
-1.99156e-05
-0.000114125
-3.67892e-05
-0.000112689
-2.94965e-05
-0.000104878
-3.16674e-05
-0.000105634
-3.82835e-05
-0.000103557
-5.83367e-05
-8.91443e-05
-6.04748e-05
-8.32247e-05
-6.45704e-05
-7.99122e-05
-6.88223e-05
-7.38436e-05
-7.15428e-05
-7.09688e-05
-7.49489e-05
-6.70093e-05
-7.69603e-05
-6.52767e-05
-8.01681e-05
-0.000108136
-8.79806e-05
-0.000108494
-9.11783e-05
-9.93062e-05
-9.84144e-05
-6.72162e-05
-9.11273e-05
-8.45835e-05
-0.000134965
-6.54254e-05
-0.000102196
-8.10749e-05
-0.00010275
-4.5283e-05
-0.000112237
-2.64289e-05
-1.66118e-05
-0.000116218
-5.46433e-06
-0.000104187
-1.26737e-05
-0.000106916
-1.94907e-05
-0.000105872
-2.48801e-05
-9.94887e-05
-3.2191e-05
-9.83227e-05
-4.18514e-05
-9.38961e-05
-5.19735e-05
-7.90222e-05
-5.50796e-05
-8.01186e-05
-6.09556e-05
-7.40363e-05
-6.38587e-05
-7.09406e-05
-6.69308e-05
-6.78968e-05
-6.90763e-05
-6.48638e-05
-7.18249e-05
-6.2528e-05
-7.76906e-05
-0.00010227
-8.25025e-05
-0.000103682
-8.45156e-05
-9.72931e-05
-6.39162e-05
-8.78157e-05
-8.85648e-05
-5.99349e-05
-9.76208e-05
-5.63694e-05
-8.20712e-05
-9.66244e-05
-9.92569e-05
-2.80973e-05
-0.000104987
-2.06989e-05
-1.19589e-05
-0.00010964
-6.29576e-06
-9.78913e-05
-1.38778e-05
-9.93337e-05
-2.16044e-05
-9.81452e-05
-2.54597e-05
-9.56333e-05
-3.02762e-05
-9.35062e-05
-4.32851e-05
-8.08871e-05
-4.54936e-05
-7.68135e-05
-5.06656e-05
-7.49466e-05
-5.34446e-05
-7.12572e-05
-5.61759e-05
-6.82093e-05
-5.91723e-05
-6.49004e-05
-6.11182e-05
-6.29179e-05
-6.33276e-05
-6.03185e-05
-7.13936e-05
-9.42037e-05
-7.82661e-05
-9.68095e-05
-8.31454e-05
-9.24138e-05
-8.55562e-05
-8.54049e-05
-9.10439e-05
-5.44472e-05
-8.13909e-05
-6.60224e-05
-0.000127994
-5.00211e-05
-9.09046e-05
-6.5187e-05
-9.83194e-05
-1.32841e-05
-1.11926e-05
-9.90857e-05
-5.71501e-06
-9.21763e-05
-1.20755e-05
-9.29732e-05
-1.81397e-05
-9.2081e-05
-2.34362e-05
-9.03367e-05
-3.70112e-05
-7.99312e-05
-4.08265e-05
-7.70719e-05
-4.36402e-05
-7.39997e-05
-4.64967e-05
-7.20901e-05
-4.86362e-05
-6.91177e-05
-4.97608e-05
-6.70848e-05
-5.05373e-05
-6.41239e-05
-4.99845e-05
-6.34707e-05
-4.92209e-05
-6.10821e-05
-7.83697e-05
-6.50548e-05
-7.74762e-05
-9.7703e-05
-7.77946e-05
-9.20954e-05
-8.06934e-05
-8.25061e-05
-6.5773e-05
-6.93676e-05
-8.75749e-05
-4.42205e-05
-9.58117e-05
-4.17843e-05
-0.000120586
-4.04122e-05
-9.19421e-05
-4.19284e-05
-1.00243e-05
-9.31104e-05
-5.02155e-06
-8.71547e-05
-1.1385e-05
-8.66097e-05
-1.69734e-05
-8.64925e-05
-2.85308e-05
-7.87794e-05
-3.18384e-05
-7.66236e-05
-3.49332e-05
-7.3977e-05
-3.75564e-05
-7.13766e-05
-4.05941e-05
-6.90524e-05
-4.32431e-05
-6.64687e-05
-4.59287e-05
-6.43992e-05
-4.84071e-05
-6.16455e-05
-5.18188e-05
-6.0059e-05
-5.45211e-05
-5.83798e-05
-6.07011e-05
-5.88748e-05
-6.45948e-05
-9.38093e-05
-6.85683e-05
-8.81219e-05
-7.21763e-05
-7.8898e-05
-7.20099e-05
-6.9534e-05
-7.58201e-05
-4.04102e-05
-8.11181e-05
-3.64863e-05
-8.87358e-05
-3.27945e-05
-7.31321e-05
-5.75321e-05
-1.64275e-06
-8.15136e-05
-6.58834e-06
-8.05663e-05
-1.30231e-05
-8.01748e-05
-2.04883e-05
-7.90272e-05
-2.45159e-05
-7.47518e-05
-2.77387e-05
-7.34007e-05
-3.10235e-05
-7.06922e-05
-3.37857e-05
-6.86144e-05
-3.64155e-05
-6.64227e-05
-3.88347e-05
-6.40496e-05
-4.13042e-05
-6.19297e-05
-4.36158e-05
-5.93339e-05
-4.63397e-05
-5.7335e-05
-5.0514e-05
-5.42055e-05
-5.68211e-05
-5.25676e-05
-6.03208e-05
-9.03096e-05
-6.39675e-05
-8.44752e-05
-6.76725e-05
-7.51931e-05
-7.10184e-05
-6.61882e-05
-7.59308e-05
-3.54978e-05
-7.13175e-05
-4.10997e-05
-6.63625e-05
-3.77494e-05
-9.73598e-05
-2.65347e-05
-2.00722e-05
-7.89303e-05
-6.37711e-06
-7.41891e-05
-1.19454e-05
-7.46064e-05
-1.71703e-05
-7.38023e-05
-2.02876e-05
-7.16343e-05
-2.37584e-05
-6.99299e-05
-2.65006e-05
-6.795e-05
-2.92051e-05
-6.59099e-05
-3.16667e-05
-6.39612e-05
-3.4032e-05
-6.16843e-05
-3.6385e-05
-5.95767e-05
-3.86388e-05
-5.708e-05
-4.11997e-05
-5.47741e-05
-4.3529e-05
-5.18763e-05
-4.66345e-05
-4.94621e-05
-5.11764e-05
-8.57677e-05
-5.59252e-05
-7.97263e-05
-6.06824e-05
-7.04359e-05
-6.3562e-05
-6.33085e-05
-5.05785e-05
-4.84812e-05
-6.45171e-05
-2.71611e-05
-6.55633e-05
-3.67032e-05
-7.09604e-05
-2.11376e-05
-2.51744e-05
-6.58581e-05
-4.05313e-06
-7.01359e-05
-7.93469e-06
-7.07249e-05
-1.18266e-05
-6.99104e-05
-1.5436e-05
-6.80248e-05
-1.84921e-05
-6.68738e-05
-2.15072e-05
-6.49348e-05
-2.41019e-05
-6.33153e-05
-2.67775e-05
-6.12856e-05
-2.91838e-05
-5.92781e-05
-3.16681e-05
-5.70924e-05
-3.40096e-05
-5.47384e-05
-3.64194e-05
-5.23643e-05
-3.87857e-05
-4.951e-05
-4.15645e-05
-4.66833e-05
-4.46778e-05
-8.26544e-05
-4.76744e-05
-7.67297e-05
-4.95786e-05
-6.85316e-05
-5.19401e-05
-6.0947e-05
-5.11142e-05
-4.9307e-05
-5.2068e-05
-2.62072e-05
-5.51535e-05
-3.36177e-05
-5.8146e-05
-1.8145e-05
-3.46511e-05
-4.86693e-05
-3.66942e-06
-6.64665e-05
-7.26322e-06
-6.71311e-05
-1.06598e-05
-6.65137e-05
-1.32714e-05
-6.54131e-05
-1.60606e-05
-6.40846e-05
-1.82954e-05
-6.27e-05
-2.06226e-05
-6.09882e-05
-2.26286e-05
-5.92796e-05
-2.46644e-05
-5.72422e-05
-2.65702e-05
-5.51865e-05
-2.84862e-05
-5.28224e-05
-3.04206e-05
-5.04298e-05
-3.22791e-05
-4.76515e-05
-3.41578e-05
-4.48047e-05
-3.73893e-05
-7.94229e-05
-4.06633e-05
-7.34556e-05
-4.34469e-05
-6.57479e-05
-4.52423e-05
-5.91515e-05
-4.33909e-05
-5.11584e-05
-4.35946e-05
-2.60035e-05
-5.53308e-05
-2.18815e-05
-4.5635e-05
-2.78408e-05
-1.18385e-05
-6.84476e-05
-2.41882e-06
-6.40477e-05
-4.80468e-06
-6.47452e-05
-7.14376e-06
-6.41746e-05
-9.49639e-06
-6.30604e-05