/*--------------------------------*- C++ -*----------------------------------*\
| =========                 |                                                 |
| \\      /  F ield         | foam-extend: Open Source CFD                    |
|  \\    /   O peration     | Version:     4.1                                |
|   \\  /    A nd           | Web:         http://www.foam-extend.org         |
|    \\/     M anipulation  |                                                 |
\*---------------------------------------------------------------------------*/
FoamFile
{
    version     2.0;
    format      ascii;
    class       volScalarField;
    location    "0.05";
    object      alpha1;
}
// * * * * * * * * * * * * * * * * * * * * * * * * * * * * * * * * * * * * * //

dimensions      [0 0 0 0 0 0 0];

internalField   nonuniform List<scalar> 
2268
(
1
1
1
1
1
1
1
1
1
0.99995
0.99703
0.908206
0.189048
0.0451288
0.0142247
0.00265975
0.00025302
9.33947e-06
1.39415e-07
1.12258e-09
5.689e-12
1.78191e-14
0
1
1
1
1
1
1
1
1
1
0.99995
0.99649
0.888912
0.201141
0.040232
0.00695935
0.00120197
9.3789e-05
2.53808e-06
3.4364e-08
2.74217e-10
1.52217e-12
5.4956e-15
0
1
1
1
1
1
1
1
1
1
0.999961
0.99729
0.919461
0.177383
0.0149319
0.00168275
0.000173384
9.47236e-06
2.05022e-07
2.77923e-09
2.46417e-11
1.71196e-13
1.16573e-15
0
1
1
1
1
1
1
1
1
1
0.999974
0.997183
0.866434
0.218135
0.0427888
0.0037707
0.000159565
1.95392e-06
3.27345e-08
4.88395e-10
5.78948e-12
5.19029e-14
7.21645e-16
3.88578e-16
1
1
1
1
1
1
1
1
1
0.999979
0.998056
0.891244
0.177825
0.010908
0.000300749
2.55148e-05
3.21243e-07
7.5958e-09
1.43929e-10
2.23577e-12
2.44249e-14
3.88578e-16
0
1
1
1
1
1
1
1
1
1
0.99998
0.998666
0.930907
0.180127
0.00367865
0.000123394
5.81327e-06
1.45737e-07
3.40733e-09
6.84213e-11
1.06398e-12
1.30451e-14
3.88578e-16
2.22045e-16
1
1
1
1
1
1
1
1
1
0.999979
0.998075
0.908428
0.174943
0.0153804
0.000357959
3.7594e-06
9.6855e-08
2.06759e-09
3.71545e-11
5.09204e-13
6.82787e-15
7.77156e-16
1.66533e-16
1
1
1
1
1
1
1
1
1
0.999984
0.998676
0.934493
0.100577
0.00306849
9.44162e-05
2.71249e-06
5.93824e-08
1.25759e-09
2.01575e-11
2.69673e-13
3.21965e-15
0
0
5.55112e-17
0
0
0
1.66533e-16
1.77636e-15
2.77556e-16
0
0
0
3.33067e-16
0
4.996e-16
1.11022e-15
0
6.10623e-16
8.88178e-16
7.77156e-16
0
5.55112e-17
2.22045e-16
5.55112e-16
0
2.22045e-16
1.11022e-15
3.33067e-16
3.33067e-16
3.88578e-16
5.55112e-16
0
8.32667e-16
6.66134e-16
0
0
0
7.21645e-16
0
4.996e-16
0
2.77556e-16
2.22045e-16
0
0
0
0
1.66533e-16
0
6.66134e-16
2.22045e-16
6.66134e-16
5.55112e-17
0
0
0
0
0
0
5.55112e-17
0
0
0
0
0
4.996e-16
6.10623e-16
0
2.77556e-16
7.77156e-16
0
0
1.66533e-16
1.66533e-16
2.77556e-16
5.55112e-17
6.10623e-16
1.11022e-16
0
2.22045e-16
4.44089e-16
7.21645e-16
0
0
5.55112e-17
0
6.66134e-16
2.22045e-16
5.55112e-16
3.33067e-16
0
2.22045e-16
0
0
0
0
0
5.55112e-16
7.21645e-16
2.77556e-16
3.33067e-16
6.66134e-16
5.55112e-16
4.996e-16
0
0
2.77556e-16
0
0
0
0
3.88578e-16
2.77556e-16
4.996e-16
8.88178e-16
8.88178e-16
2.22045e-16
9.4369e-16
9.4369e-16
5.55112e-16
2.22045e-16
8.88178e-16
1.66533e-16
0
4.44089e-16
0
0
2.77556e-16
0
0
0
8.32667e-16
0
8.32667e-16
6.66134e-16
3.33067e-16
2.22045e-16
2.22045e-16
1.05471e-15
5.55112e-17
0
0
0
7.21645e-16
0
7.77156e-16
4.996e-16
0
4.996e-16
2.22045e-16
3.88578e-16
0
5.55112e-17
3.88578e-16
1
1
1
1
1
1
1
1
1
0.999981
0.998114
0.898316
0.123241
0.00584288
0.000129208
1.89659e-06
3.35261e-08
5.79797e-10
8.55815e-12
1.01419e-13
1.83187e-15
1.11022e-16
2.77556e-16
1
1
1
1
1
1
1
1
1
0.999985
0.99886
0.925831
0.111644
0.0030892
5.69998e-05
1.11206e-06
1.79531e-08
2.45985e-10
3.01353e-12
3.29181e-14
2.22045e-16
1.66533e-16
1.22125e-15
1
1
1
1
1
1
1
1
1
0.999986
0.998636
0.93
0.174509
0.0083839
0.000271843
4.49344e-06
4.85645e-08
4.17809e-10
3.18362e-12
2.39253e-14
2.22045e-16
0
7.77156e-16
1
1
1
1
1
1
1
1
1
0.99999
0.998885
0.935077
0.186412
0.0115996
0.000466539
9.54507e-06
1.09971e-07
8.57169e-10
5.58281e-12
3.30291e-14
3.33067e-16
1.16573e-15
0
1
1
1
1
1
1
1
1
1
0.999996
0.9994
0.951635
0.152659
0.00773859
0.0002394
4.37077e-06
5.5765e-08
5.677e-10
4.36573e-12
3.01981e-14
1.16573e-15
2.22045e-16
4.44089e-16
1
1
1
1
1
1
1
1
1
0.999999
0.999739
0.969803
0.164882
0.00614696
0.000175055
3.10887e-06
3.84199e-08
4.13187e-10
4.09339e-12
3.48055e-14
1.33227e-15
0
0
1
1
1
1
1
1
1
1
1
1
0.999895
0.969007
0.151885
0.00655919
0.000187437
5.39059e-06
1.1602e-07
1.81223e-09
2.38991e-11
2.53242e-13
1.94289e-15
0
1.11022e-16
1
1
1
1
1
1
1
1
1
0.999999
0.99976
0.967296
0.139318
0.00508211
0.000239485
9.00956e-06
2.67926e-07
6.09001e-09
9.42564e-11
1.18916e-12
1.2268e-14
0
4.44089e-16
1
1
1
1
1
1
1
1
1
0.999988
0.998428
0.915149
0.168548
0.0130508
0.000857006
5.07325e-05
1.82626e-06
4.32524e-08
7.65613e-10
1.00247e-11
1.00642e-13
1.27676e-15
0
1
1
1
1
1
1
1
1
1
0.99998
0.997871
0.907288
0.181535
0.0185473
0.00187107
0.000135951
5.21911e-06
1.21788e-07
2.11157e-09
2.7247e-11
2.69007e-13
2.22045e-15
5.55112e-17
1
1
1
1
1
1
1
1
1
0.999957
0.995531
0.850727
0.252874
0.0513905
0.0039142
0.000293927
1.18423e-05
2.67501e-07
4.05648e-09
4.81237e-11
4.46532e-13
2.38698e-15
0
1
1
1
1
1
1
1
1
1
0.999975
0.997755
0.889133
0.133652
0.00995338
0.000832885
7.99883e-05
2.73974e-06
5.68689e-08
9.9143e-10
1.21039e-11
1.06137e-13
8.32667e-16
2.77556e-16
1
1
1
1
1
1
1
1
0.999998
0.999811
0.988307
0.747168
0.172324
0.0163694
0.00126879
6.25504e-05
1.51163e-06
2.4755e-08
2.98228e-10
2.61285e-12
1.77081e-14
9.4369e-16
4.996e-16
1
1
1
1
1
1
1
1
0.999997
0.999797
0.988613
0.779146
0.27418
0.0311956
0.00242183
8.72552e-05
1.5669e-06
1.72682e-08
1.26259e-10
6.05405e-13
2.33147e-15
2.22045e-16
5.55112e-17
1
1
1
1
1
1
1
1
0.999996
0.99988
0.99352
0.854951
0.357576
0.0683563
0.00857877
0.000714457
2.63153e-05
3.78861e-07
2.70449e-09
1.03383e-11
2.15383e-14
0
1.66533e-16
0.999999
0.999999
0.999999
0.999999
0.999999
0.999997
0.999993
0.999996
0.99998
0.999669
0.991884
0.815675
0.238961
0.0435922
0.00422838
0.000279192
8.84581e-06
1.24038e-07
7.89391e-10
2.87476e-12
5.38458e-15
0
0
0.999954
0.999951
0.999944
0.999945
0.999925
0.999572
0.99956
0.999854
0.999434
0.99703
0.968775
0.749546
0.201436
0.00922053
0.000208309
2.31636e-05
5.6603e-07
5.09517e-09
1.53502e-11
4.22995e-14
9.99201e-16
7.21645e-16
2.22045e-16
0.997795
0.99762
0.996823
0.996511
0.993788
0.973348
0.983697
0.99368
0.98744
0.963843
0.769587
0.369102
0.21357
0.0268324
0.00133787
3.26629e-05
4.69337e-07
1.9974e-10
4.39537e-13
7.77156e-16
2.77556e-16
2.22045e-16
0
0.93509
0.92125
0.883383
0.82989
0.828512
0.642025
0.758253
0.739062
0.708558
0.689581
0.312334
0.0832482
0.0877841
0.0153275
0.0052928
0.000993679
2.73416e-05
6.18651e-08
6.35575e-11
4.59077e-14
3.33067e-16
0
0
0.331214
0.250191
0.205872
0.139166
0.125963
0.134697
0.265586
0.188738
0.134843
0.203313
0.128936
0.018915
0.0185794
0.000607897
6.12964e-05
8.36621e-05
3.81267e-06
6.68819e-09
5.04741e-12
3.55271e-15
1.66533e-16
2.22045e-16
0
0.0512936
0.0331402
0.0187088
0.00944292
0.00667364
0.0102616
0.0345395
0.0235259
0.00807509
0.0187826
0.012306
0.00261685
0.000216033
1.00891e-05
2.31469e-06
2.02507e-06
1.24246e-07
2.29794e-10
1.48936e-13
7.21645e-16
7.77156e-16
0
0
0.00732737
0.00382736
0.00176989
0.000667586
0.000504782
0.000583237
0.00249104
0.00128815
0.000292502
0.000983931
0.00032265
0.000156973
9.17296e-06
2.82313e-07
3.38865e-08
1.68242e-09
1.43543e-10
1.54177e-12
1.9984e-15
6.66134e-16
4.44089e-16
6.10623e-16
0
0.000852492
0.000389921
0.000124844
4.54991e-05
2.45515e-05
1.6432e-05
6.75768e-05
2.1946e-05
1.74887e-06
9.31087e-06
4.76481e-07
3.98238e-06
2.57238e-07
2.88156e-09
1.56578e-10
7.40397e-12
1.28508e-13
2.10942e-15
8.88178e-16
0
6.66134e-16
2.77556e-16
4.996e-16
5.55161e-05
2.42763e-05
6.32018e-06
1.80667e-06
5.40817e-07
2.17439e-07
4.10716e-07
7.56758e-09
1.34102e-10
5.63946e-11
1.12975e-09
2.55567e-08
1.3426e-09
9.07663e-12
6.5542e-13
2.35367e-14
9.4369e-16
1.66533e-16
1.27676e-15
0
5.55112e-16
3.88578e-16
5.55112e-17
1.94064e-06
9.37833e-07
2.22698e-07
5.48323e-08
9.86847e-09
1.81839e-09
4.5425e-10
6.46333e-12
1.47937e-13
6.86673e-14
3.25762e-12
7.66132e-11
3.83787e-12
3.15303e-14
9.99201e-16
0
8.88178e-16
4.996e-16
0
6.66134e-16
6.10623e-16
4.996e-16
0
4.28717e-08
2.36782e-08
5.67259e-09
1.2801e-09
1.57655e-10
1.70673e-11
7.66109e-13
2.43139e-14
1.38778e-15
0
4.4964e-15
1.18017e-13
4.32987e-15
4.996e-16
7.21645e-16
3.33067e-16
9.4369e-16
1.22125e-15
6.10623e-16
0
0
6.10623e-16
6.66134e-16
6.74137e-10
4.18333e-10
1.01047e-10
2.23275e-11
2.19197e-12
1.7536e-13
4.10783e-15
7.77156e-16
2.22045e-16
0
8.88178e-16
6.10623e-16
0
4.44089e-16
7.77156e-16
0
0
2.77556e-16
2.77556e-16
0
7.21645e-16
5.55112e-17
0
8.00382e-12
5.44298e-12
1.33021e-12
2.86049e-13
2.4647e-14
1.44329e-15
2.77556e-16
4.44089e-16
4.996e-16
6.66134e-16
0
3.88578e-16
3.33067e-16
3.33067e-16
3.33067e-16
0
0
0
0
1.05471e-15
7.77156e-16
1.11022e-16
0
7.50511e-14
5.47895e-14
1.34337e-14
2.94209e-15
9.4369e-16
0
0
2.22045e-16
6.10623e-16
9.99201e-16
4.996e-16
0
5.55112e-17
5.55112e-17
0
4.996e-16
8.88178e-16
3.33067e-16
0
0
0
4.996e-16
0
6.66134e-16
9.4369e-16
4.996e-16
1.05471e-15
1.22125e-15
6.66134e-16
0
2.77556e-16
5.55112e-17
1.66533e-15
3.88578e-16
0
0
5.55112e-16
2.22045e-16
2.77556e-16
0
0
0
7.21645e-16
0
4.44089e-16
1.16573e-15
5.55112e-17
0
4.996e-16
0
0
2.22045e-16
0
2.77556e-16
7.77156e-16
0
7.77156e-16
9.4369e-16
7.77156e-16
5.55112e-16
7.21645e-16
5.55112e-17
9.4369e-16
0
7.77156e-16
0
9.4369e-16
0
5.55112e-17
4.44089e-16
5.55112e-17
0
3.88578e-16
4.44089e-16
2.22045e-16
8.32667e-16
0
8.88178e-16
2.77556e-16
6.66134e-16
6.66134e-16
6.66134e-16
5.55112e-17
5.55112e-17
2.22045e-16
0
0
0
2.22045e-16
3.88578e-16
1.66533e-16
0
0
0
7.21645e-16
2.77556e-16
0
1.11022e-16
0
3.88578e-16
7.21645e-16
0
2.77556e-16
6.66134e-16
0
0
2.22045e-16
0
2.77556e-16
5.55112e-16
1.33227e-15
5.55112e-16
4.996e-16
3.88578e-16
0
0
0
1.66533e-16
0
0
9.4369e-16
1.66533e-16
2.77556e-16
0
2.22045e-16
0
5.55112e-17
0
6.10623e-16
0
0
6.10623e-16
4.996e-16
1.66533e-16
0
2.77556e-16
5.55112e-17
0
0
0
8.88178e-16
8.32667e-16
5.55112e-16
0
9.99201e-16
7.21645e-16
9.4369e-16
2.22045e-16
0
3.33067e-16
0
0
0
0
0
0
0
6.10623e-16
7.21645e-16
0
2.77556e-16
2.22045e-16
5.55112e-17
2.77556e-16
9.4369e-16
8.88178e-16
6.66134e-16
6.66134e-16
1.05471e-15
0
7.77156e-16
3.88578e-16
2.77556e-16
4.44089e-16
0
7.21645e-16
0
7.77156e-16
2.77556e-16
7.77156e-16
0
2.22045e-16
0
5.55112e-17
0
2.77556e-16
4.996e-16
7.21645e-16
7.21645e-16
2.77556e-16
0
6.10623e-16
6.66134e-16
2.77556e-16
3.33067e-16
0
3.88578e-16
1.66533e-16
2.22045e-16
1.66533e-16
1.05471e-15
2.77556e-16
0
7.21645e-16
6.10623e-16
0
0
7.77156e-16
0
2.22045e-16
2.77556e-16
5.55112e-16
1.66533e-16
0
1.11022e-16
6.10623e-16
1.05471e-15
0
0
6.10623e-16
3.88578e-16
0
7.21645e-16
0
1.72085e-15
7.21645e-16
3.88578e-16
4.44089e-16
0
5.55112e-17
7.21645e-16
0
2.22045e-16
7.77156e-16
6.66134e-16
0
7.21645e-16
0
2.77556e-16
1.22125e-15
0
0
6.10623e-16
0
8.88178e-16
0
2.22045e-16
0
2.77556e-16
2.22045e-16
9.4369e-16
4.44089e-16
2.77556e-16
5.55112e-16
0
4.996e-16
0
0
9.99201e-16
2.77556e-16
2.77556e-16
8.32667e-16
1.16573e-15
4.44089e-16
1.05471e-15
1.05471e-15
2.22045e-16
0
0
0
9.99201e-16
5.55112e-17
5.55112e-16
4.44089e-16
2.22045e-16
0
0
1.66533e-16
6.10623e-16
9.4369e-16
8.88178e-16
4.996e-16
1.11022e-16
0
5.55112e-16
4.44089e-16
0
3.88578e-16
3.88578e-16
4.996e-16
4.996e-16
0
6.10623e-16
4.44089e-16
6.66134e-16
1.11022e-16
8.88178e-16
2.22045e-16
0
4.44089e-16
0
4.44089e-16
0
2.22045e-16
2.22045e-16
0
0
2.22045e-16
3.33067e-16
4.996e-16
2.77556e-16
0
5.55112e-17
0
0
0
2.22045e-16
3.88578e-16
1.11022e-16
0
5.55112e-17
0
0
0
3.33067e-16
0
2.22045e-16
0
4.44089e-16
5.55112e-16
4.44089e-16
3.88578e-16
0
2.77556e-16
4.44089e-16
8.32667e-16
0
0
6.66134e-16
5.55112e-17
1.66533e-16
0
5.55112e-17
1.11022e-16
0
3.88578e-16
3.88578e-16
7.77156e-16
1.66533e-16
0
2.77556e-16
4.44089e-16
0
4.44089e-16
0
8.32667e-16
0
1.66533e-16
3.88578e-16
6.66134e-16
0
1.66533e-16
0
5.55112e-17
0
0
0
0
0
0
0
3.33067e-16
0
1.66533e-16
3.33067e-16
4.996e-16
0
3.33067e-16
0
9.99201e-16
0
6.10623e-16
1.66533e-16
5.55112e-16
0
8.32667e-16
0
1.66533e-16
0
0
0
1.66533e-16
0
0
2.22045e-16
1.11022e-16
0
1.11022e-16
3.88578e-16
6.10623e-16
0
0
0
1.33227e-15
5.55112e-16
8.88178e-16
0
2.22045e-16
0
0
0
4.996e-16
0
2.22045e-16
0
6.10623e-16
0
8.32667e-16
7.77156e-16
6.10623e-16
0
3.88578e-16
0
1.16573e-15
0
0
1.66533e-16
8.32667e-16
0
1.66533e-16
0
5.55112e-17
0
4.996e-16
2.22045e-16
1.66533e-15
0
0
4.44089e-16
2.77556e-16
0
0
0
1.11022e-16
0
2.22045e-16
0
0
1.66533e-16
1.66533e-16
2.22045e-16
6.10623e-16
0
2.77556e-16
0
7.77156e-16
0
0
0
1.11022e-15
0
0
3.88578e-16
2.22045e-16
0
1.66533e-16
4.996e-16
6.10623e-16
0
0
9.99201e-16
1.11022e-15
2.22045e-16
0
0
0
0
2.77556e-16
0
0
0
7.77156e-16
6.10623e-16
0
0
0
5.55112e-16
0
4.44089e-16
0
1.22125e-15
3.88578e-16
0
2.77556e-16
5.55112e-17
0
0
4.996e-16
1.11022e-16
0
0
3.88578e-16
0
0
0
0
0
0
1.11022e-16
2.77556e-16
0
0
0
0
0
3.33067e-16
2.22045e-16
0
0
0
8.32667e-16
0
6.66134e-16
0
0
4.996e-16
0
0
0
0
2.77556e-16
0
4.44089e-16
8.88178e-16
0
1.66533e-16
0
0
0
0
1.66533e-16
0
4.44089e-16
2.22045e-16
9.4369e-16
1.66533e-16
2.22045e-16
3.33067e-16
0
0
0
1.11022e-16
0
0
0
0
0
6.10623e-16
0
0
4.996e-16
1.11022e-16
7.21645e-16
0
8.32667e-16
0
1.66533e-16
0
0
1.72085e-15
0
0
4.996e-16
0
1.11022e-16
0
6.66134e-16
0
0
7.21645e-16
0
1.11022e-16
2.77556e-16
3.33067e-16
2.22045e-16
0
0
0
8.88178e-16
4.44089e-16
0
0
7.21645e-16
2.77556e-16
0
0
3.88578e-16
3.33067e-16
0
2.77556e-16
4.996e-16
1.05471e-15
0
0
3.88578e-16
0
0
3.33067e-16
0
7.21645e-16
2.77556e-16
0
2.77556e-16
1.66533e-16
2.77556e-16
3.33067e-16
0
0
5.55112e-17
5.55112e-17
3.88578e-16
0
0
0
0
0
0
3.88578e-16
3.88578e-16
2.77556e-16
4.996e-16
0
3.88578e-16
9.99201e-16
6.10623e-16
0
0
7.21645e-16
0
9.99201e-16
3.33067e-16
0
1.16573e-15
0
2.22045e-16
4.44089e-16
0
1.11022e-16
3.88578e-16
0
6.66134e-16
4.996e-16
0
0
0
4.996e-16
9.99201e-16
0
7.21645e-16
0
5.55112e-17
0
0
0
2.77556e-16
0
0
0
9.4369e-16
3.88578e-16
2.22045e-16
0
9.4369e-16
7.77156e-16
0
2.22045e-16
0
0
0
0
0
0
1.11022e-16
7.77156e-16
0
7.77156e-16
0
4.44089e-16
0
1.11022e-16
4.44089e-16
0
6.66134e-16
0
3.88578e-16
0
2.22045e-16
1.11022e-16
0
0
0
4.996e-16
0
4.996e-16
3.33067e-16
0
4.44089e-16
5.55112e-16
4.996e-16
2.77556e-16
4.44089e-16
9.99201e-16
2.77556e-16
0
1.11022e-16
0
5.55112e-17
3.88578e-16
3.33067e-16
2.22045e-16
3.33067e-16
2.77556e-16
5.55112e-16
0
0
1.11022e-16
7.77156e-16
4.44089e-16
0
3.88578e-16
5.55112e-17
5.55112e-17
9.99201e-16
8.32667e-16
5.55112e-16
0
0
2.77556e-16
0
0
0
3.88578e-16
0
0
2.22045e-16
1.05471e-15
8.88178e-16
4.996e-16
2.77556e-16
2.22045e-16
5.55112e-16
0
1.11022e-16
0
0
3.88578e-16
0
0
5.55112e-17
0
3.33067e-16
1.11022e-15
0
1.16573e-15
0
0
0
0
0
3.88578e-16
3.88578e-16
0
3.33067e-16
5.55112e-17
4.44089e-16
2.77556e-16
0
3.88578e-16
5.55112e-17
3.33067e-16
1.11022e-16
5.55112e-17
2.22045e-16
3.33067e-16
0
6.10623e-16
0
6.66134e-16
0
6.66134e-16
5.55112e-16
3.33067e-16
0
2.77556e-16
0
0
0
1.11022e-16
0
0
0
4.44089e-16
8.32667e-16
4.996e-16
0
0
0
5.55112e-16
0
2.77556e-16
0
0
1.11022e-15
5.55112e-17
1.66533e-16
1.44329e-15
5.55112e-17
3.33067e-16
0
0
0
0
1.11022e-16
1.11022e-16
0
3.33067e-16
7.21645e-16
3.88578e-16
7.21645e-16
8.88178e-16
5.55112e-17
4.44089e-16
1.11022e-16
5.55112e-17
0
3.33067e-16
0
0
2.77556e-16
5.55112e-17
0
1.11022e-16
3.88578e-16
4.44089e-16
1.11022e-16
0
2.77556e-16
3.33067e-16
2.77556e-16
4.44089e-16
4.44089e-16
5.55112e-17
5.55112e-17
0
1.11022e-16
5.55112e-17
0
1.11022e-16
3.33067e-16
7.21645e-16
4.996e-16
2.77556e-16
4.996e-16
4.996e-16
0
0
5.55112e-16
0
2.22045e-16
1.66533e-16
0
5.55112e-17
3.88578e-16
4.996e-16
0
5.55112e-17
0
1.11022e-16
3.88578e-16
8.88178e-16
3.88578e-16
2.22045e-16
6.66134e-16
5.55112e-17
4.44089e-16
0
5.55112e-17
0
4.44089e-16
0
3.88578e-16
0
4.44089e-16
0
1.11022e-16
5.55112e-17
2.77556e-16
3.33067e-16
0
1.16573e-15
0
0
3.88578e-16
0
5.55112e-16
4.996e-16
0
0
2.77556e-16
1.11022e-16
4.44089e-16
2.77556e-16
2.77556e-16
0
3.33067e-16
0
0
5.55112e-17
8.32667e-16
2.77556e-16
4.44089e-16
2.77556e-16
0
6.10623e-16
3.33067e-16
0
2.22045e-16
0
0
0
4.996e-16
4.44089e-16
0
3.33067e-16
5.55112e-17
0
5.55112e-17
0
5.55112e-17
4.44089e-16
2.77556e-16
4.44089e-16
0
0
1.66533e-16
4.44089e-16
0
2.77556e-16
4.44089e-16
4.996e-16
1.11022e-16
2.77556e-16
0
0
0
6.66134e-16
0
0
0
6.10623e-16
0
2.77556e-16
0
2.77556e-16
2.77556e-16
0
0
0
0
0
2.77556e-16
0
5.55112e-17
4.44089e-16
0
0
3.33067e-16
7.77156e-16
7.21645e-16
2.77556e-16
3.33067e-16
0
0
0
0
0
0
7.21645e-16
0
0
0
0
0
4.996e-16
3.33067e-16
0
0
1.11022e-16
0
2.77556e-16
0
0
0
0
3.88578e-16
0
2.22045e-16
6.10623e-16
1.11022e-15
4.44089e-16
2.22045e-16
0
3.88578e-16
0
0
5.55112e-16
0
0
4.996e-16
0
0
4.44089e-16
0
0
0
0
0
1.22125e-15
4.44089e-16
4.996e-16
1.16573e-15
0
5.55112e-17
7.21645e-16
3.88578e-16
3.88578e-16
5.55112e-17
2.22045e-16
0
3.88578e-16
7.21645e-16
5.55112e-17
3.33067e-16
2.22045e-16
7.77156e-16
0
0
0
6.66134e-16
2.22045e-16
1.11022e-16
5.55112e-17
1.11022e-16
1.11022e-16
1.11022e-16
2.22045e-16
0
1.11022e-16
0
3.88578e-16
4.996e-16
0
7.77156e-16
4.44089e-16
5.55112e-17
0
0
0
0
2.77556e-16
3.33067e-16
0
3.33067e-16
4.996e-16
8.88178e-16
0
0
0
2.22045e-16
0
0
1.27676e-15
1.11022e-16
3.33067e-16
8.88178e-16
5.55112e-17
1.66533e-16
0
2.77556e-16
2.22045e-16
0
6.66134e-16
2.77556e-16
3.88578e-16
0
0
0
3.88578e-16
1.66533e-16
0
7.77156e-16
4.44089e-16
0
0
0
6.10623e-16
0
0
0
7.77156e-16
2.77556e-16
0
0
4.996e-16
9.4369e-16
5.55112e-17
0
8.32667e-16
0
1.66533e-16
5.55112e-17
0
1.11022e-15
0
0
0
0
7.21645e-16
9.4369e-16
3.33067e-16
3.33067e-16
6.66134e-16
1.22125e-15
2.22045e-16
0
7.77156e-16
0
3.33067e-16
3.33067e-16
4.996e-16
0
0
3.33067e-16
1.66533e-16
2.77556e-16
0
6.66134e-16
0
4.44089e-16
0
2.77556e-16
4.44089e-16
1.16573e-15
0
0
0
4.44089e-16
6.10623e-16
5.55112e-17
0
4.996e-16
0
5.55112e-16
1.11022e-16
3.33067e-16
0
4.44089e-16
2.77556e-16
0
8.32667e-16
3.88578e-16
5.55112e-17
6.10623e-16
1.11022e-16
0
0
3.33067e-16
0
0
1.11022e-16
0
4.44089e-16
0
3.33067e-16
3.88578e-16
0
0
8.88178e-16
0
0
1.11022e-16
0
2.22045e-16
5.55112e-17
0
3.33067e-16
5.55112e-17
0
1.22125e-15
3.88578e-16
1.16573e-15
0
3.33067e-16
0
4.996e-16
0
0
3.33067e-16
0
0
0
0
0
4.44089e-16
2.77556e-16
0
6.10623e-16
3.33067e-16
5.55112e-17
0
0
4.44089e-16
4.44089e-16
1.11022e-16
4.44089e-16
0
0
0
5.55112e-17
0
7.21645e-16
0
0
6.66134e-16
0
5.55112e-17
2.22045e-16
0
3.33067e-16
4.44089e-16
0
3.88578e-16
0
9.99201e-16
0
0
1.66533e-16
4.996e-16
0
1.66533e-16
0
3.33067e-16
1.11022e-16
1.11022e-16
1.66533e-16
5.55112e-16
0
0
3.33067e-16
1.11022e-16
4.44089e-16
3.88578e-16
1.05471e-15
0
1.66533e-16
2.77556e-16
3.33067e-16
0
0
6.10623e-16
0
2.77556e-16
0
2.77556e-16
2.77556e-16
7.21645e-16
1.22125e-15
0
4.996e-16
4.44089e-16
9.4369e-16
0
6.10623e-16
0
0
8.88178e-16
0
0
)
;

boundaryField
{
    leftWall
    {
        type            zeroGradient;
    }
    rightWall
    {
        type            zeroGradient;
    }
    lowerWall
    {
        type            zeroGradient;
    }
    atmosphere
    {
        type            inletOutlet;
        inletValue      uniform 0;
        value           nonuniform List<scalar> 
46
(
4.44089e-16
0
4.44089e-16
0
2.22045e-16
2.22045e-16
0
0
2.22045e-16
3.33067e-16
4.996e-16
2.77556e-16
0
5.55112e-17
0
0
0
2.22045e-16
3.88578e-16
1.11022e-16
0
5.55112e-17
0
5.55112e-16
0
4.44089e-16
0
6.10623e-16
0
2.77556e-16
0
2.77556e-16
2.77556e-16
7.21645e-16
1.22125e-15
0
4.996e-16
4.44089e-16
9.4369e-16
0
6.10623e-16
0
0
8.88178e-16
0
0
)
;
    }
    defaultFaces
    {
        type            empty;
    }
}


// ************************************************************************* //
