/*--------------------------------*- C++ -*----------------------------------*\
| =========                 |                                                 |
| \\      /  F ield         | foam-extend: Open Source CFD                    |
|  \\    /   O peration     | Version:     4.1                                |
|   \\  /    A nd           | Web:         http://www.foam-extend.org         |
|    \\/     M anipulation  |                                                 |
\*---------------------------------------------------------------------------*/
FoamFile
{
    version     2.0;
    format      ascii;
    class       volScalarField;
    location    "0.05";
    object      p;
}
// * * * * * * * * * * * * * * * * * * * * * * * * * * * * * * * * * * * * * //

dimensions      [1 -1 -2 0 0 0 0];

internalField   nonuniform List<scalar> 
2268
(
2030.95
2020.44
1997.42
1960.11
1907.51
1833.66
1749.18
1636.14
1490.09
1344.48
1211.01
1236.14
646.481
63.8071
9.52548
2.28958
1.754
1.64058
1.49546
1.37868
1.30918
1.2667
1.24334
1973.7
1963.29
1940.5
1903.49
1851.34
1778.4
1693.09
1582.93
1435.93
1290.97
1155.4
1247.07
702.155
49.4908
4.09578
1.91019
1.6701
1.56704
1.42849
1.31468
1.2455
1.20107
1.1781
1918.04
1907.83
1885.49
1849.16
1797.72
1726.45
1640.38
1535.24
1386.38
1244.77
1101.64
1109.28
543.733
8.57994
2.2484
1.77959
1.60197
1.48635
1.35571
1.24672
1.17671
1.12903
1.10655
1863.95
1854.02
1832.31
1797.13
1746.52
1677.75
1591.96
1490.59
1348.36
1202.01
1046.3
1219.29
775.921
48.8698
2.26748
1.70138
1.53966
1.40715
1.27854
1.17534
1.1029
1.05259
1.02889
1811.41
1801.72
1780.79
1747.09
1697.56
1632.18
1548.57
1448.04
1316.54
1162.56
1016.83
1083.35
532.605
4.5728
1.70186
1.60532
1.46012
1.32288
1.19853
1.09869
1.02381
0.970747
0.94456
1760.28
1750.72
1730.73
1698.56
1650.6
1589.34
1508.8
1407.32
1288.15
1134.1
1000.79
1048.85
510.832
2.79386
1.77236
1.56831
1.37987
1.23443
1.11394
1.01599
0.939284
0.882519
0.849263
1710.06
1700.78
1681.98
1651.79
1605.82
1548.04
1474.08
1376.28
1258.46
1109.81
960.903
1072.44
525.397
8.3367
1.67749
1.50956
1.29747
1.14319
1.02358
0.927374
0.849653
0.788743
0.744347
1660.37
1651.79
1634.48
1606.8
1565.26
1508.96
1442.04
1349.92
1236.77
1087.16
898.135
792.755
206.105
1.67348
1.63219
1.38671
1.20578
1.04763
0.927116
0.832341
0.755298
0.691212
0.636061
0.62156
0.617
0.607508
0.593793
0.578252
0.562465
0.547073
0.532481
0.51868
0.505829
0.493722
0.480911
0.466825
0.45489
0.445561
0.438476
0.433371
0.430041
0.428398
0.564305
0.559683
0.549408
0.535242
0.519451
0.503512
0.488063
0.473405
0.459544
0.446682
0.434504
0.421395
0.407401
0.395613
0.386377
0.37935
0.374267
0.370953
0.36932
0.508708
0.503949
0.492008
0.476971
0.460697
0.444457
0.428903
0.414073
0.400114
0.387213
0.37485
0.361245
0.347524
0.336021
0.326953
0.32002
0.314988
0.311707
0.310091
0.454873
0.448682
0.435156
0.418912
0.401935
0.385268
0.369498
0.35444
0.340372
0.327386
0.314577
0.300582
0.287307
0.276175
0.267321
0.260513
0.255559
0.252324
0.250731
0.403121
0.3944
0.378778
0.360965
0.343071
0.325897
0.309738
0.294492
0.280285
0.267102
0.253517
0.239571
0.226803
0.21608
0.207483
0.200833
0.195979
0.192801
0.191233
0.354355
0.341386
0.322765
0.302986
0.283972
0.266277
0.249631
0.234224
0.219745
0.205932
0.19188
0.178288
0.166034
0.155758
0.147456
0.140992
0.136252
0.133139
0.131598
0.309586
0.289352
0.266898
0.244819
0.224559
0.206047
0.189113
0.173543
0.158184
0.143908
0.130001
0.116766
0.10506
0.0952643
0.0872789
0.0810125
0.0763924
0.0733477
0.0718372
0.268969
0.237716
0.21091
0.186299
0.16463
0.14523
0.127705
0.111599
0.0961566
0.0817421
0.067969
0.0550764
0.0439944
0.0346686
0.0269887
0.0209157
0.0164146
0.0134401
0.0119612
1583.99
1577
1562.43
1539.02
1504.74
1453.98
1396.89
1318.97
1215.46
1066.99
834.556
716.863
321.414
4.07363
1.6911
1.32291
1.04409
0.882468
0.765188
0.67401
0.603382
0.539009
0.455869
1487.38
1481.63
1470.83
1453.38
1429.14
1394.8
1347.23
1300.33
1220.79
1103.25
939.895
814.014
259.755
1.41132
1.09215
0.917031
0.749985
0.617796
0.515576
0.437805
0.378692
0.320802
0.252825
1399.06
1394.15
1385.15
1372.31
1355.81
1336.37
1312.32
1280.96
1250.87
1207.86
1161.55
1298.41
507.851
2.86273
0.713522
0.5627
0.413093
0.322037
0.249429
0.19488
0.150085
0.104908
0.0659997
1318.36
1313.97
1306.03
1296.51
1287.21
1278.83
1271.28
1265.76
1257.59
1258.84
1305.35
1529.12
563.349
3.90108
-0.0148795
0.106673
0.027788
-0.00513387
-0.0268072
-0.0486203
-0.0726216
-0.0935551
-0.117375
1242.9
1240.05
1235.21
1230.26
1226.47
1224.88
1231.74
1250.23
1285.81
1347.72
1453.11
1639.33
420.384
0.330752
-0.892733
-0.504856
-0.394211
-0.335201
-0.30061
-0.281653
-0.279827
-0.284854
-0.298189
1172.13
1170.7
1168.79
1167.54
1168.26
1174.88
1192.47
1228.88
1298.71
1414.24
1599.19
1922.81
460.569
-1.47114
-1.57625
-0.98832
-0.746111
-0.614142
-0.538652
-0.495343
-0.47522
-0.469529
-0.473456
1104.49
1103.83
1103.25
1103.98
1107.94
1117.3
1134.97
1170.68
1258.41
1372.59
1554.78
1804.51
405.228
-2.48179
-1.80796
-1.24279
-0.979877
-0.821795
-0.731996
-0.681045
-0.655723
-0.643656
-0.639159
1038.62
1038.1
1037.49
1037.4
1041.52
1045.38
1055.82
1089.51
1152.13
1244.3
1393.88
1628.82
348.14
-2.82982
-1.68982
-1.29756
-1.10021
-0.975759
-0.886685
-0.84109
-0.81503
-0.801842
-0.796217
973.739
972.622
970.412
967.598
965.023
963.383
969.173
985.929
1014.56
1055.31
1108.04
1213.98
486.359
2.53874
-1.28635
-1.24453
-1.15326
-1.0607
-1.00604
-0.974759
-0.95753
-0.949202
-0.946085
909.876
907.876
903.478
896.625
887.37
879.754
877.451
875.754
872.951
870.513
876.495
996.981
529.737
6.95429
-0.974718
-1.13028
-1.13787
-1.11681
-1.10552
-1.09405
-1.08991
-1.08976
-1.09138
848.755
845.637
838.377
827.413
812.91
798.707
785.66
770.044
743.69
727.566
671.572
980.696
920.525
63.6233
-0.788931
-1.13746
-1.15477
-1.17849
-1.20044
-1.21122
-1.21959
-1.22779
-1.23451
794.333
789.404
777.548
761.108
740.234
719.896
696.687
668.655
622.92
569.938
461.671
504.231
324.347
-0.902728
-1.33628
-1.12011
-1.19347
-1.25039
-1.29754
-1.32938
-1.35148
-1.36716
-1.37821
751.731
739.614
721.518
700.055
668.573
640.421
606.276
574.546
534.135
485.281
353.335
862.296
517.299
6.89715
-0.879588
-0.988648
-1.17113
-1.31287
-1.40344
-1.45762
-1.49058
-1.51132
-1.52471
732.845
710.062
673.265
635.428
598.338
558.993
522.232
485.586
453.832
422.011
346.014
936.445
931.142
27.571
-0.823993
-0.907001
-1.17994
-1.39965
-1.53183
-1.60149
-1.64021
-1.66241
-1.67528
731.602
701.571
640.348
574.809
517.827
470.39
434.248
406.774
373.818
368.446
360.214
742.173
1216.91
119.066
-0.121578
-1.61288
-1.38064
-1.58092
-1.70478
-1.76484
-1.79771
-1.81605
-1.82611
775.361
715.023
620.457
510.922
424.325
371.616
342.123
324.774
300.08
306.921
316.204
749.637
778.727
43.9203
-1.96605
-2.27103
-1.93495
-1.88083
-1.91387
-1.94231
-1.96269
-1.97319
-1.97853
865.886
780.963
614.773
422.429
294.913
268.343
241.225
228.983
210.304
228.337
305.239
926.22
609.676
-0.340107
-2.87263
-2.3904
-2.26017
-2.18249
-2.13668
-2.13529
-2.13295
-2.1332
-2.13294
1035.4
898.187
612.472
293.402
86.6731
158.392
156.21
115.74
89.0921
227.603
880.647
1229.53
680.561
13.9103
-3.08323
-2.7028
-2.55367
-2.43695
-2.36132
-2.32734
-2.30345
-2.29272
-2.28657
1377.31
1254.26
911.921
488.875
208.409
916.179
746.756
727.83
586.883
991.409
1085.56
148.214
170.135
1.61968
-2.70765
-2.91096
-2.70353
-2.61382
-2.54641
-2.50172
-2.46866
-2.4493
-2.43865
1073.97
794.879
648.065
380.097
320.407
362.936
907.313
589.953
359.667
662.436
306.527
0.308823
4.13576
-3.95237
-3.29578
-2.98341
-2.88593
-2.78048
-2.70465
-2.65741
-2.62174
-2.60257
-2.58959
65.0137
19.9313
4.9683
-0.341228
-1.0673
1.57097
32.0919
12.2843
-0.100898
6.8224
-3.02568
-4.99807
-4.16055
-3.37399
-3.17155
-3.09647
-3.05861
-2.9417
-2.86344
-2.81391
-2.78006
-2.75676
-2.73937
-4.02798
-4.94191
-4.48344
-3.81902
-3.3641
-3.09957
-3.09482
-3.33801
-3.21457
-3.60994
-4.36962
-4.14659
-3.65485
-3.46255
-3.38916
-3.27245
-3.18227
-3.09861
-3.02452
-2.97011
-2.93621
-2.91046
-2.88861
-4.79623
-4.71548
-4.30012
-3.94645
-3.62044
-3.50779
-3.32818
-3.47164
-3.44556
-3.33688
-3.72225
-3.79007
-3.69593
-3.55549
-3.48556
-3.40134
-3.32062
-3.24523
-3.18379
-3.13327
-3.09217
-3.06391
-3.0411
-4.42147
-4.4344
-4.24349
-4.0121
-3.81822
-3.70107
-3.62419
-3.64026
-3.62881
-3.62838
-3.68342
-3.71742
-3.70053
-3.6327
-3.57795
-3.5248
-3.453
-3.39084
-3.33704
-3.28903
-3.24831
-3.21729
-3.19725
-4.354
-4.34991
-4.2405
-4.08813
-3.95385
-3.84681
-3.76162
-3.74871
-3.76442
-3.7497
-3.74854
-3.74945
-3.7389
-3.70829
-3.67234
-3.6267
-3.57491
-3.52245
-3.47168
-3.43365
-3.3994
-3.3703
-3.34932
-4.34011
-4.3162
-4.25244
-4.15404
-4.06657
-3.98549
-3.92967
-3.89186
-3.87605
-3.85762
-3.834
-3.82235
-3.80237
-3.79122
-3.75911
-3.72674
-3.69459
-3.65447
-3.61514
-3.57929
-3.54728
-3.52092
-3.4981
-4.35027
-4.33194
-4.29511
-4.2374
-4.17176
-4.10886
-4.06048
-4.02685
-4.00186
-3.97948
-3.95721
-3.93627
-3.91745
-3.8884
-3.86074
-3.83732
-3.81607
-3.78892
-3.75311
-3.71943
-3.69217
-3.66628
-3.64372
-4.39045
-4.37948
-4.3569
-4.32069
-4.27478
-4.22501
-4.18418
-4.15134
-4.12473
-4.10068
-4.07901
-4.05383
-4.03206
-4.00374
-3.9773
-3.95351
-3.93284
-3.91242
-3.89089
-3.85846
-3.83071
-3.808
-3.78765
-4.45353
-4.44784
-4.4354
-4.41229
-4.37261
-4.33485
-4.30064
-4.27109
-4.24438
-4.22059
-4.20148
-4.17726
-4.1476
-4.12167
-4.09648
-4.07772
-4.06029
-4.03947
-4.0229
-3.9971
-3.96994
-3.94891
-3.92913
-4.53401
-4.53033
-4.52198
-4.50858
-4.47557
-4.44323
-4.41383
-4.38709
-4.36039
-4.3354
-4.31496
-4.29566
-4.26488
-4.24263
-4.22037
-4.19802
-4.1803
-4.1634
-4.14823
-4.1323
-4.10777
-4.08633
-4.06882
-4.62381
-4.62156
-4.61653
-4.60093
-4.57582
-4.54961
-4.52264
-4.49946
-4.47332
-4.45
-4.43208
-4.41145
-4.38346
-4.36337
-4.34089
-4.3208
-4.30451
-4.28981
-4.27501
-4.26205
-4.24292
-4.22303
-4.20708
-4.71913
-4.71794
-4.70994
-4.69256
-4.67426
-4.65215
-4.62916
-4.60786
-4.58481
-4.56523
-4.54559
-4.52565
-4.4994
-4.4825
-4.46341
-4.44619
-4.42793
-4.41368
-4.40128
-4.39051
-4.37775
-4.36034
-4.34478
-4.81728
-4.81222
-4.80389
-4.78963
-4.7735
-4.75412
-4.73438
-4.71543
-4.69801
-4.67549
-4.65772
-4.63982
-4.6165
-4.60245
-4.58621
-4.56913
-4.55306
-4.53894
-4.5282
-4.51768
-4.50793
-4.49365
-4.47886
-4.90972
-4.90518
-4.89596
-4.88665
-4.8731
-4.85622
-4.84003
-4.82571
-4.80889
-4.78789
-4.77046
-4.75466
-4.73514
-4.72242
-4.70831
-4.69341
-4.68016
-4.66598
-4.65536
-4.64597
-4.63768
-4.62642
-4.61431
-4.99994
-4.99641
-4.99181
-4.98457
-4.97359
-4.95982
-4.94676
-4.93439
-4.91769
-4.90089
-4.88296
-4.86899
-4.85352
-4.84223
-4.82993
-4.81688
-4.80516
-4.79334
-4.7822
-4.77289
-4.76618
-4.75854
-4.74875
-5.09463
-5.09318
-5.08954
-5.08334
-5.07447
-5.06331
-5.0524
-5.04098
-5.0253
-5.01274
-4.99526
-4.98371
-4.97178
-4.9619
-4.95115
-4.93996
-4.92953
-4.91969
-4.90945
-4.90199
-4.89498
-4.88895
-4.88096
-5.19341
-5.1918
-5.18814
-5.18235
-5.17453
-5.16586
-5.157
-5.14678
-5.13389
-5.12361
-5.10865
-5.09888
-5.0899
-5.08127
-5.07197
-5.06243
-5.05351
-5.04491
-5.03633
-5.02963
-5.02333
-5.01871
-5.01252
-5.29212
-5.29046
-5.28706
-5.28184
-5.27482
-5.26802
-5.26117
-5.25274
-5.24297
-5.23446
-5.22258
-5.21395
-5.20688
-5.19998
-5.19234
-5.18448
-5.17711
-5.16986
-5.1632
-5.15754
-5.15264
-5.14869
-5.14376
-5.39078
-5.38929
-5.38636
-5.38215
-5.37685
-5.37075
-5.36512
-5.35884
-5.35162
-5.34446
-5.33606
-5.32903
-5.32339
-5.31817
-5.31236
-5.30626
-5.30044
-5.29487
-5.28976
-5.28507
-5.28077
-5.27789
-5.27445
-5.48977
-5.48852
-5.48616
-5.48295
-5.479
-5.47385
-5.46907
-5.46498
-5.46017
-5.45449
-5.44895
-5.44374
-5.43927
-5.43608
-5.43224
-5.42792
-5.42362
-5.41961
-5.41594
-5.41245
-5.40954
-5.40708
-5.40514
-5.58752
-5.58656
-5.58482
-5.58236
-5.57899
-5.57685
-5.57326
-5.57054
-5.56833
-5.56415
-5.56129
-5.55754
-5.55503
-5.55366
-5.55202
-5.54964
-5.54696
-5.54431
-5.54204
-5.54001
-5.53833
-5.53571
-5.53455
-5.68427
-5.68373
-5.68241
-5.68038
-5.67881
-5.67813
-5.67749
-5.67621
-5.67519
-5.6737
-5.67366
-5.67156
-5.67067
-5.67086
-5.67082
-5.67043
-5.66968
-5.66872
-5.66764
-5.66643
-5.66538
-5.66505
-5.66446
0.373138
0.329096
0.29051
0.257597
0.208356
0.178912
0.151308
0.126745
0.0360623
0.0163359
-0.00312934
-0.0209815
-0.137932
-0.151654
-0.165035
-0.178145
-0.310585
-0.318947
-0.327785
-0.336977
-0.478656
-0.483144
-0.488588
-0.49477
-0.640595
-0.642791
-0.646062
-0.650223
-0.796329
-0.797538
-0.799758
-0.802833
-0.946758
-0.948048
-0.950114
-0.952842
-1.09371
-1.09566
-1.09808
-1.1009
-1.23892
-1.24179
-1.24478
-1.24788
-1.38431
-1.3879
-1.3913
-1.39457
-1.53143
-1.53517
-1.53856
-1.54171
-1.68083
-1.68396
-1.68683
-1.68947
-1.83094
-1.83361
-1.83583
-1.83775
-1.98149
-1.98314
-1.98461
-1.98596
-2.13291
-2.13293
-2.13312
-2.13357
-2.28355
-2.28191
-2.28067
-2.28001
-2.43307
-2.42984
-2.42723
-2.42603
-2.58287
-2.57936
-2.5766
-2.5743
-2.7305
-2.72557
-2.72137
-2.71785
-2.87766
-2.87158
-2.86632
-2.86189
-3.02765
-3.01993
-3.01323
-3.00757
-3.18248
-3.17368
-3.16549
-3.15805
-3.33593
-3.32752
-3.31923
-3.31134
-3.48429
-3.47621
-3.46871
-3.46188
-3.63036
-3.62195
-3.61433
-3.60772
-3.77373
-3.76572
-3.75852
-3.75149
-3.91623
-3.90826
-3.90068
-3.89394
-4.05701
-4.04949
-4.04218
-4.03536
-4.19609
-4.18919
-4.1827
-4.17621
-4.3344
-4.32818
-4.32183
-4.31597
-4.47045
-4.46512
-4.45978
-4.45419
-4.60616
-4.60105
-4.5964
-4.59172
-4.74064
-4.73644
-4.73194
-4.72773
-4.87434
-4.87015
-4.86643
-4.86296
-5.00706
-5.00347
-5.0007
-4.99751
-5.13986
-5.13715
-5.13417
-5.13136
-5.27148
-5.26909
-5.26695
-5.26476
-5.40272
-5.40117
-5.3995
-5.39776
-5.53312
-5.53214
-5.5309
-5.52979
-5.66405
-5.6634
-5.66251
-5.66199
0.207486
0.155605
0.121007
0.0938687
0.0701712
0.0495392
0.0311573
0.0144292
-0.00112105
-0.0156166
-0.0292273
-0.0413693
-0.0515046
-0.0601836
-0.0674328
-0.0732213
-0.0775411
-0.0804061
-0.0818337
0.0912806
0.0349404
-0.0050918
-0.0353937
-0.0607225
-0.0825146
-0.101651
-0.118787
-0.13439
-0.148757
-0.161731
-0.172295
-0.181534
-0.18958
-0.196357
-0.201802
-0.205886
-0.208603
-0.20996
-0.0480377
-0.0949696
-0.135683
-0.168349
-0.194432
-0.216745
-0.236132
-0.253274
-0.26865
-0.282393
-0.293526
-0.303179
-0.311815
-0.319371
-0.325747
-0.330882
-0.334742
-0.337315
-0.338602
-0.199653
-0.231444
-0.269603
-0.302011
-0.32974
-0.352569
-0.371803
-0.388479
-0.402805
-0.414666
-0.424943
-0.434162
-0.44238
-0.449536
-0.455564
-0.460417
-0.464067
-0.466503
-0.467721
-0.352611
-0.374559
-0.406541
-0.436917
-0.463319
-0.485842
-0.505031
-0.521176
-0.53476
-0.546299
-0.556404
-0.565358
-0.573243
-0.580057
-0.585774
-0.590369
-0.593824
-0.596129
-0.597283
-0.505981
-0.523062
-0.544983
-0.573274
-0.598072
-0.619433
-0.637777
-0.653422
-0.66675
-0.678189
-0.688135
-0.696837
-0.704418
-0.710922
-0.716355
-0.720711
-0.723983
-0.726165
-0.727257
-0.658298
-0.671624
-0.687164
-0.711236
-0.734092
-0.75412
-0.771501
-0.786494
-0.799404
-0.810552
-0.820227
-0.828641
-0.83592
-0.842127
-0.847292
-0.851423
-0.854522
-0.856588
-0.85762
-0.809071
-0.820044
-0.832554
-0.850136
-0.87114
-0.889766
-0.906088
-0.920316
-0.932671
-0.943395
-0.95271
-0.960792
-0.967756
-0.973671
-0.978575
-0.982491
-0.985424
-0.987377
-0.988353
-0.958283
-0.967928
-0.978872
-0.991487
-1.00912
-1.02626
-1.04144
-1.0548
-1.06649
-1.0767
-1.08559
-1.0933
-1.09993
-1.10555
-1.1102
-1.1139
-1.11667
-1.11852
-1.11944
-1.10619
-1.11507
-1.12504
-1.13585
-1.14818
-1.16341
-1.17746
-1.18987
-1.20083
-1.21045
-1.21885
-1.22616
-1.23244
-1.23777
-1.24216
-1.24565
-1.24826
-1.25
-1.25086
-1.25325
-1.26158
-1.27066
-1.28034
-1.29061
-1.30154
-1.31408
-1.32544
-1.33565
-1.34464
-1.3525
-1.35937
-1.3653
-1.37031
-1.37444
-1.37772
-1.38017
-1.3818
-1.38261
-1.39997
-1.40772
-1.41582
-1.42435
-1.4333
-1.44261
-1.45215
-1.46139
-1.47095
-1.47923
-1.48648
-1.49293
-1.4985
-1.50319
-1.50705
-1.51011
-1.5124
-1.51392
-1.51468
-1.54674
-1.5536
-1.56065
-1.568
-1.57567
-1.58361
-1.59167
-1.59955
-1.60722
-1.61423
-1.62077
-1.62685
-1.63205
-1.63639
-1.63996
-1.6428
-1.64493
-1.64635
-1.64706
-1.69368
-1.6994
-1.70526
-1.71138
-1.71779
-1.72444
-1.73141
-1.73798
-1.7444
-1.75049
-1.75617
-1.7614
-1.766
-1.76993
-1.7732
-1.77581
-1.77778
-1.77909
-1.77975
-1.84082
-1.84491
-1.84934
-1.85433
-1.85975
-1.86552
-1.87093
-1.87639
-1.88185
-1.88713
-1.892
-1.8965
-1.90056
-1.90406
-1.90699
-1.90934
-1.9111
-1.91228
-1.91287
-1.98806
-1.99031
-1.99314
-1.99703
-2.00111
-2.00533
-2.00998
-2.01471
-2.01943
-2.02404
-2.02812
-2.03195
-2.03557
-2.03865
-2.04125
-2.04334
-2.0449
-2.04594
-2.04646
-2.13434
-2.1351
-2.13646
-2.13925
-2.14219
-2.14541
-2.14916
-2.15305
-2.15681
-2.1606
-2.16427
-2.16768
-2.17081
-2.17357
-2.17591
-2.17775
-2.1791
-2.18002
-2.18048
-2.27958
-2.2796
-2.27905
-2.28091
-2.28282
-2.28514
-2.28846
-2.29137
-2.29438
-2.29746
-2.30067
-2.30361
-2.30624
-2.30868
-2.31076
-2.31241
-2.31362
-2.31444
-2.31486
-2.4248
-2.42356
-2.42139
-2.42183
-2.42316
-2.4249
-2.42724
-2.42953
-2.43198
-2.43473
-2.43726
-2.4397
-2.44193
-2.44407
-2.44588
-2.44734
-2.44844
-2.44916
-2.44953
-2.56966
-2.56577
-2.56293
-2.56241
-2.56347
-2.56385
-2.56587
-2.56777
-2.56957
-2.57199
-2.57388
-2.57605
-2.57803
-2.57976
-2.58125
-2.58254
-2.58352
-2.58417
-2.5845
-2.71285
-2.70819
-2.70456
-2.70351
-2.70301
-2.70281
-2.70434
-2.70587
-2.70697
-2.70923
-2.71086
-2.71266
-2.71428
-2.71563
-2.71683
-2.71808
-2.71892
-2.71949
-2.71976
-2.85579
-2.85006
-2.84611
-2.8444
-2.84326
-2.84246
-2.84293
-2.84356
-2.84468
-2.84649
-2.84778
-2.8492
-2.85073
-2.85183
-2.85281
-2.85386
-2.8546
-2.85505
-2.85528
-2.99975
-2.99257
-2.98784
-2.98506
-2.98314
-2.98207
-2.982
-2.98164
-2.98272
-2.98408
-2.98474
-2.98606
-2.98724
-2.98818
-2.98893
-2.98985
-2.99051
-2.9909
-2.99109
-3.1472
-3.13712
-3.13053
-3.12624
-3.12348
-3.12182
-3.12089
-3.12036
-3.12095
-3.1217
-3.12196
-3.12305
-3.12406
-3.12468
-3.12532
-3.12608
-3.12663
-3.12695
-3.12712
-3.29948
-3.28615
-3.27603
-3.26913
-3.2648
-3.26196
-3.26034
-3.25936
-3.25929
-3.25942
-3.25965
-3.2603
-3.26104
-3.26136
-3.262
-3.26254
-3.26302
-3.26325
-3.2634
-3.45089
-3.43687
-3.42508
-3.41556
-3.40834
-3.40352
-3.40076
-3.39891
-3.39804
-3.39765
-3.39763
-3.39777
-3.39817
-3.39843
-3.39888
-3.39932
-3.39966
-3.39984
-3.39994
-3.59732
-3.58566
-3.57398
-3.56369
-3.55499
-3.54812
-3.54301
-3.5397
-3.53768
-3.53655
-3.53595
-3.53574
-3.53575
-3.53586
-3.53606
-3.53638
-3.53659
-3.53672
-3.53679
-3.74093
-3.72991
-3.72061
-3.71097
-3.7021
-3.6944
-3.68788
-3.6828
-3.67905
-3.67662
-3.67512
-3.67441
-3.67394
-3.67372
-3.67372
-3.67383
-3.67391
-3.67398
-3.67402
-3.88374
-3.87193
-3.86331
-3.85604
-3.84811
-3.84043
-3.83352
-3.8276
-3.82267
-3.81877
-3.81597
-3.81419
-3.81304
-3.81233
-3.81203
-3.81187
-3.81178
-3.81175
-3.81175
-4.02517
-4.01372
-4.00439
-3.99787
-3.99193
-3.98537
-3.97868
-3.97257
-3.96719
-3.96259
-3.95883
-3.95584
-3.95369
-3.95225
-3.95138
-3.95083
-3.95049
-3.9503
-3.95023
-4.16587
-4.15507
-4.14554
-4.13834
-4.13301
-4.12827
-4.12282
-4.117
-4.11159
-4.10677
-4.10259
-4.09903
-4.09617
-4.09399
-4.09234
-4.09123
-4.09052
-4.0901
-4.08992
-4.30623
-4.29508
-4.28666
-4.27839
-4.27306
-4.2689
-4.26516
-4.26056
-4.25545
-4.25067
-4.2464
-4.24267
-4.23953
-4.23695
-4.23488
-4.23333
-4.23226
-4.23159
-4.23127
-4.44557
-4.43454
-4.42626
-4.41866
-4.41265
-4.40873
-4.40553
-4.40262
-4.3986
-4.39406
-4.38988
-4.38619
-4.383
-4.38032
-4.37813
-4.37642
-4.37518
-4.37438
-4.37399
-4.58365
-4.57348
-4.56511
-4.55879
-4.55214
-4.54816
-4.54523
-4.54285
-4.54054
-4.53682
-4.53287
-4.52933
-4.52626
-4.52365
-4.52151
-4.51981
-4.51856
-4.51773
-4.51733
-4.72069
-4.71179
-4.70362
-4.69772
-4.69197
-4.68733
-4.68466
-4.6825
-4.68075
-4.67873
-4.67527
-4.67199
-4.66914
-4.66673
-4.66475
-4.66317
-4.66199
-4.66122
-4.66083
-4.85734
-4.84923
-4.84181
-4.83604
-4.83151
-4.82647
-4.82382
-4.82194
-4.8204
-4.81919
-4.81704
-4.81411
-4.81158
-4.80947
-4.80772
-4.80634
-4.8053
-4.80461
-4.80426
-4.99254
-4.98559
-4.97928
-4.97401
-4.97015
-4.96574
-4.96282
-4.96125
-4.95991
-4.95891
-4.95801
-4.95564
-4.95356
-4.95183
-4.9504
-4.94926
-4.94839
-4.94782
-4.94753
-5.12696
-5.12102
-5.11625
-5.11166
-5.1082
-5.10476
-5.10188
-5.10044
-5.09929
-5.09844
-5.09792
-5.09656
-5.09511
-5.09386
-5.0928
-5.09193
-5.09127
-5.09083
-5.0906
-5.26112
-5.25669
-5.25284
-5.24909
-5.24617
-5.24352
-5.24107
-5.23956
-5.23863
-5.23796
-5.23753
-5.23708
-5.23638
-5.23566
-5.23499
-5.23442
-5.23396
-5.23365
-5.23349
-5.3947
-5.39174
-5.38899
-5.38638
-5.38407
-5.38225
-5.38037
-5.37878
-5.37811
-5.37761
-5.37731
-5.37761
-5.37761
-5.37738
-5.37707
-5.37676
-5.3765
-5.37631
-5.37622
-5.52803
-5.52634
-5.52491
-5.52357
-5.522
-5.52121
-5.51998
-5.51864
-5.51794
-5.51762
-5.51762
-5.51854
-5.51892
-5.519
-5.51895
-5.51884
-5.51873
-5.51864
-5.51859
-5.66138
-5.66126
-5.66101
-5.6605
-5.66001
-5.66007
-5.65961
-5.65891
-5.65831
-5.65817
-5.65854
-5.65922
-5.65955
-5.65969
-5.65973
-5.65974
-5.65972
-5.6597
-5.65968
)
;

boundaryField
{
    leftWall
    {
        type            calculated;
        value           nonuniform List<scalar> 
50
(
2030.95
1973.7
1918.04
1863.95
1811.41
1760.28
1710.06
1660.37
1583.99
1487.38
1399.06
1318.36
1242.9
1172.13
1104.49
1038.62
973.739
909.876
848.755
794.333
751.731
732.845
731.602
775.361
865.886
1035.4
1377.31
1073.97
65.0137
-4.02798
-4.79623
-4.42147
-4.354
-4.34011
-4.35027
-4.39045
-4.45353
-4.53401
-4.62381
-4.71913
-4.81728
-4.90972
-4.99994
-5.09463
-5.19341
-5.29212
-5.39078
-5.48977
-5.58752
-5.68427
)
;
    }
    rightWall
    {
        type            calculated;
        value           nonuniform List<scalar> 
50
(
0.428398
0.36932
0.310091
0.250731
0.191233
0.131598
0.0718372
0.0119612
-0.0818337
-0.20996
-0.338602
-0.467721
-0.597283
-0.727257
-0.85762
-0.988353
-1.11944
-1.25086
-1.38261
-1.51468
-1.64706
-1.77975
-1.91287
-2.04646
-2.18048
-2.31486
-2.44953
-2.5845
-2.71976
-2.85528
-2.99109
-3.12712
-3.2634
-3.39994
-3.53679
-3.67402
-3.81175
-3.95023
-4.08992
-4.23127
-4.37399
-4.51733
-4.66083
-4.80426
-4.94753
-5.0906
-5.23349
-5.37622
-5.51859
-5.65968
)
;
    }
    lowerWall
    {
        type            calculated;
        value           nonuniform List<scalar> 
62
(
2060.38
2049.87
2026.85
1989.54
1936.94
1863.09
1778.61
1665.57
1519.52
1373.91
1240.36
1262.87
652.069
65.1634
9.97311
2.39721
1.79087
1.67029
1.52489
1.40811
1.33861
1.29613
1.27277
1.24334
1.1781
1.10655
1.02889
0.94456
0.849263
0.744347
0.636061
0.435735
0.391693
0.353107
0.320194
0.62156
0.564305
0.508708
0.454873
0.403121
0.354355
0.309586
0.268969
0.65099
0.646429
0.636937
0.623223
0.607681
0.591894
0.576503
0.56191
0.548109
0.535258
0.523152
0.51034
0.496254
0.484319
0.47499
0.467906
0.462801
0.45947
0.457827
)
;
    }
    atmosphere
    {
        type            calculated;
        value           nonuniform List<scalar> 
46
(
-5.72907
-5.72908
-5.72908
-5.72908
-5.72909
-5.72909
-5.7291
-5.7291
-5.72911
-5.72912
-5.72912
-5.72912
-5.72912
-5.72912
-5.72912
-5.72912
-5.7291
-5.72909
-5.72908
-5.72906
-5.72905
-5.72905
-5.72904
-5.72904
-5.72904
-5.72904
-5.72904
-5.72904
-5.72904
-5.72904
-5.72904
-5.72904
-5.72904
-5.72904
-5.72904
-5.72904
-5.72904
-5.72904
-5.72904
-5.72904
-5.72904
-5.72904
-5.72904
-5.72904
-5.72904
-5.72904
)
;
    }
    defaultFaces
    {
        type            empty;
    }
}


// ************************************************************************* //
