/*--------------------------------*- C++ -*----------------------------------*\
| =========                 |                                                 |
| \\      /  F ield         | foam-extend: Open Source CFD                    |
|  \\    /   O peration     | Version:     4.1                                |
|   \\  /    A nd           | Web:         http://www.foam-extend.org         |
|    \\/     M anipulation  |                                                 |
\*---------------------------------------------------------------------------*/
FoamFile
{
    version     2.0;
    format      ascii;
    class       volScalarField;
    location    "0.05";
    object      pd;
}
// * * * * * * * * * * * * * * * * * * * * * * * * * * * * * * * * * * * * * //

dimensions      [1 -1 -2 0 0 0 0];

internalField   nonuniform List<scalar> 
2268
(
2060.38
2049.87
2026.85
1989.54
1936.94
1863.09
1778.61
1665.57
1519.52
1373.91
1240.36
1262.87
652.069
65.1634
9.97311
2.39721
1.79087
1.67029
1.52489
1.40811
1.33861
1.29613
1.27277
2061.99
2051.58
2028.79
1991.78
1939.63
1866.69
1781.38
1671.22
1524.22
1379.25
1243.38
1325.56
719.984
53.1276
4.79788
2.10449
1.76666
1.65555
1.51678
1.40297
1.33379
1.28936
1.26639
2065.19
2054.98
2032.64
1996.31
1944.86
1873.6
1787.53
1682.39
1533.53
1391.91
1248.39
1244.59
569.955
10.9221
2.64291
1.95222
1.75051
1.63352
1.50286
1.39386
1.32385
1.27618
1.25369
2069.95
2060.02
2038.32
2003.13
1952.53
1883.75
1797.96
1696.6
1554.37
1408.01
1251.73
1397.81
821.019
57.8817
3.24949
1.94023
1.74607
1.61316
1.48455
1.38134
1.3089
1.25859
1.23489
2076.28
2066.58
2045.65
2011.95
1962.42
1897.04
1813.44
1712.9
1581.41
1427.42
1281.18
1319.44
579.922
7.72392
2.0463
1.87693
1.72507
1.58775
1.4634
1.36356
1.28867
1.23561
1.20942
2084
2074.45
2054.45
2022.29
1974.33
1913.06
1832.52
1731.04
1611.87
1457.82
1324.08
1350.22
569.409
4.30725
2.13599
1.89392
1.70364
1.55816
1.43766
1.33972
1.26301
1.20624
1.17299
2092.65
2083.36
2064.57
2034.37
1988.41
1930.63
1856.66
1758.86
1641.04
1492.38
1342.75
1420.02
592.642
14.5976
2.19688
1.89358
1.68009
1.52577
1.40616
1.30996
1.23223
1.17132
1.12693
2101.81
2093.23
2075.92
2048.24
2006.7
1950.4
1883.48
1791.36
1678.22
1528.6
1338.99
1205.31
250.901
3.46813
2.11526
1.82934
1.64725
1.48907
1.36856
1.27378
1.19674
1.13265
1.0775
0.65099
0.646429
0.636937
0.623223
0.607681
0.591894
0.576503
0.56191
0.548109
0.535258
0.523152
0.51034
0.496254
0.484319
0.47499
0.467906
0.462801
0.45947
0.457827
0.652593
0.647972
0.637696
0.62353
0.607739
0.5918
0.576351
0.561693
0.547832
0.53497
0.522792
0.509683
0.495689
0.483901
0.474665
0.467638
0.462556
0.459241
0.457608
0.655855
0.651096
0.639155
0.624118
0.607844
0.591604
0.576049
0.56122
0.547261
0.53436
0.521997
0.508392
0.494671
0.483168
0.4741
0.467167
0.462135
0.458854
0.457238
0.660879
0.654688
0.641162
0.624917
0.607941
0.591273
0.575503
0.560446
0.546377
0.533391
0.520583
0.506588
0.493313
0.48218
0.473326
0.466519
0.461564
0.458329
0.456737
0.667985
0.659264
0.643642
0.625829
0.607935
0.590761
0.574603
0.559356
0.54515
0.531966
0.518381
0.504435
0.491668
0.480945
0.472347
0.465697
0.460843
0.457665
0.456097
0.678078
0.665109
0.646488
0.626709
0.607695
0.59
0.573354
0.557947
0.543468
0.529655
0.515603
0.502011
0.489757
0.479481
0.471179
0.464715
0.459975
0.456862
0.455321
0.692167
0.671934
0.64948
0.627401
0.607141
0.588628
0.571695
0.556125
0.540766
0.526489
0.512583
0.499348
0.487642
0.477846
0.469861
0.463594
0.458974
0.455929
0.454419
0.71041
0.679156
0.652351
0.627739
0.60607
0.58667
0.569145
0.55304
0.537597
0.523183
0.509409
0.496517
0.485435
0.476109
0.468429
0.462356
0.457855
0.454881
0.453402
2117.45
2110.46
2095.9
2072.48
2038.21
1987.45
1930.36
1852.44
1748.93
1600.45
1367.02
1196.14
387.627
7.72096
2.29343
1.85739
1.57758
1.41594
1.29866
1.20748
1.13685
1.07248
0.989336
2146.04
2140.29
2129.5
2112.04
2087.8
2053.47
2005.89
1958.99
1879.45
1761.9
1597.81
1423.87
333.876
4.10268
1.78831
1.57642
1.40866
1.27646
1.17424
1.09647
1.03735
0.979463
0.911487
2182.91
2178.01
2169
2156.17
2139.67
2120.23
2096.18
2064.82
2034.73
1991.7
1944.34
2027.45
645.288
10.2118
1.71025
1.35007
1.19699
1.10589
1.03329
0.978736
0.933941
0.888764
0.849856
2227.41
2223.03
2215.08
2205.56
2196.26
2187.88
2180.33
2174.82
2166.64
2167.88
2213.39
2379.21
733.547
15.3442
1.31785
1.02439
0.936938
0.903918
0.882243
0.86043
0.836429
0.815496
0.791676
2277.15
2274.29
2269.46
2264.5
2260.72
2259.12
2265.98
2284.47
2320.06
2381.97
2486.73
2623.61
579.147
9.3606
0.388863
0.533905
0.640092
0.699045
0.733635
0.752592
0.754418
0.749391
0.736056
2331.57
2330.14
2328.23
2326.98
2327.7
2334.32
2351.91
2388.32
2458.15
2573.67
2758.33
3047.27
652.708
6.8082
-0.214048
0.174721
0.413373
0.545298
0.620788
0.664097
0.68422
0.689911
0.685984
2389.12
2388.47
2387.89
2388.62
2392.58
2401.93
2419.61
2455.31
2543.05
2657.23
2839.28
3049.37
601.434
7.22058
-0.282782
0.0487661
0.304906
0.462842
0.552638
0.60359
0.628911
0.640978
0.645475
2448.45
2447.92
2447.32
2447.23
2451.34
2455.21
2465.65
2499.34
2561.96
2654.12
2803.37
2992.59
545.767
5.73774
0.0573042
0.124957
0.309995
0.434079
0.523144
0.568739
0.594798
0.607987
0.613612
2508.76
2507.65
2505.44
2502.62
2500.05
2498.41
2504.2
2520.95
2549.59
2590.31
2640.65
2618.88
746.36
24.0871
1.56288
0.368287
0.384564
0.474392
0.528982
0.560264
0.577493
0.585821
0.588939
2570.09
2568.09
2563.7
2556.84
2547.59
2539.97
2537.67
2535.97
2533.17
2530.7
2533.18
2503.43
832.483
39.3763
3.78877
0.755421
0.531007
0.543614
0.554701
0.566165
0.570305
0.570459
0.568839
2634.17
2631.05
2623.79
2612.82
2598.32
2584.12
2571.07
2555.46
2529.1
2512.9
2449.01
2499.86
1373.34
157.07
7.97795
1.17221
0.651763
0.6074
0.584982
0.574189
0.565822
0.557624
0.550907
2704.94
2700.01
2688.15
2671.71
2650.84
2630.5
2607.29
2579.26
2533.53
2480.5
2367.99
2203.23
581.36
20.0058
2.16406
0.943166
0.722367
0.66033
0.613069
0.581231
0.559131
0.543445
0.532397
2787.53
2775.41
2757.32
2735.86
2704.37
2676.22
2642.08
2610.35
2569.93
2520.7
2365.35
2383.9
869.802
42.2245
3.73664
1.17437
0.867744
0.722984
0.632359
0.578185
0.545218
0.524484
0.511095
2893.84
2871.06
2834.26
2796.42
2759.33
2719.99
2683.23
2646.58
2614.82
2582.57
2482.43
2620.65
1525.21
97.0781
6.56534
1.44236
0.984436
0.761379
0.629165
0.55951
0.520787
0.498591
0.485717
3017.79
2987.76
2926.54
2861
2804.02
2756.58
2720.44
2692.96
2660
2654.36
2631.6
2697.09
2035.86
277.471
21.7577
2.30506
0.965649
0.706141
0.581417
0.521354
0.488477
0.470143
0.460083
3186.74
3126.41
3031.84
2922.31
2835.71
2782.99
2753.49
2736.15
2711.42
2717.51
2708.04
2716.99
1356.79
151.344
10.6314
0.812919
0.497749
0.530851
0.497516
0.469072
0.448695
0.438191
0.432852
3402.35
3317.42
3151.21
2958.87
2831.3
2803.84
2776.69
2765.19
2745.45
2757.39
2762.69
2828.14
1122.66
25.5617
0.191815
0.204874
0.277849
0.354104
0.399895
0.401287
0.403629
0.403381
0.403637
3691.31
3553.63
3265.8
2945.9
2731.93
2749.29
2774.63
2760.71
2717.47
2793.23
2929.73
2213.67
1251.13
87.9223
3.13611
0.0458319
0.109351
0.224825
0.300451
0.334432
0.358327
0.369051
0.375206
3983.56
3821.97
3374.21
2802.23
2517.92
2706.48
2860.66
2788.3
2562.42
2914.11
1957.94
382.779
417.328
47.0811
14.8154
2.64259
0.159559
0.173323
0.240562
0.285252
0.318307
0.337669
0.348314
2040.47
1525.66
1249.91
787.877
689.777
757.716
1682.88
1141.95
754.871
1256.84
684.547
58.2496
61.1
0.728319
-0.205288
0.172146
0.0373293
0.131706
0.207517
0.254756
0.290419
0.309596
0.322574
223.692
123.527
64.7742
31.349
22.22
35.7454
139.933
86.7068
27.4389
66.8522
37.3521
5.97965
-0.467681
-0.306022
-0.127166
-0.0529681
-0.020876
0.0956563
0.173923
0.223445
0.257293
0.2806
0.297986
22.2846
10.3127
4.2709
1.45269
1.39325
1.90566
7.93792
3.89431
0.872111
2.66123
-0.187693
-0.488097
-0.46332
-0.299108
-0.2265
-0.109896
-0.0197166
0.0639373
0.138037
0.192442
0.226342
0.252095
0.273944
1.29149
-0.147054
-0.602328
-0.509261
-0.252056
-0.166073
0.181517
-0.111817
-0.152072
-0.0185569
-0.432939
-0.489245
-0.407342
-0.267736
-0.19781
-0.11359
-0.0328782
0.0425199
0.103957
0.154475
0.195572
0.223836
0.246649
-0.81924
-0.938689
-0.809
-0.592995
-0.403434
-0.287392
-0.20985
-0.22729
-0.215864
-0.215441
-0.270473
-0.304392
-0.287583
-0.219758
-0.165009
-0.111857
-0.040062
0.0220972
0.0758967
0.123915
0.164626
0.195652
0.215687
-0.809008
-0.808463
-0.701576
-0.549799
-0.415675
-0.308666
-0.223484
-0.210569
-0.226281
-0.21156
-0.2104
-0.211314
-0.200769
-0.170153
-0.134202
-0.0885606
-0.0367781
0.0156818
0.0664585
0.104488
0.138733
0.167837
0.188818
-0.676619
-0.652782
-0.58909
-0.490706
-0.403236
-0.322164
-0.266344
-0.22853
-0.212718
-0.194287
-0.170669
-0.159024
-0.139041
-0.127885
-0.0957767
-0.063408
-0.0312614
0.00885712
0.0481927
0.0840356
0.116047
0.142409
0.16523
-0.561739
-0.543416
-0.506586
-0.448878
-0.383235
-0.320332
-0.271955
-0.238329
-0.213334
-0.190955
-0.168684
-0.147745
-0.128926
-0.0998739
-0.0722182
-0.0487944
-0.0275416
-0.000395642
0.0354154
0.0690992
0.0963559
0.122248
0.144803
-0.476731
-0.465764
-0.443179
-0.406973
-0.361065
-0.311287
-0.270464
-0.237619
-0.211007
-0.186956
-0.165292
-0.140108
-0.118345
-0.0900233
-0.0635821
-0.0397862
-0.0191195
0.00129511
0.0228304
0.0552613
0.0830125
0.105715
0.126065
-0.414618
-0.408923
-0.39649
-0.373376
-0.333692
-0.295932
-0.261728
-0.232181
-0.205465
-0.181672
-0.162569
-0.138351
-0.108682
-0.0827596
-0.0575679
-0.0388022
-0.0213732
-0.000554078
0.0160144
0.0418131
0.0689784
0.0900066
0.10978
-0.369898
-0.366221
-0.357872
-0.344473
-0.311458
-0.279121
-0.249721
-0.222983
-0.196277
-0.171293
-0.150852
-0.131554
-0.100773
-0.0785217
-0.0562644
-0.0339125
-0.016194
0.000710208
0.0158797
0.0318109
0.056339
0.0777782
0.0952904
-0.334508
-0.332257
-0.32723
-0.311626
-0.286519
-0.260307
-0.23334
-0.210152
-0.184013
-0.160692
-0.142774
-0.122144
-0.0941571
-0.0740703
-0.0515901
-0.0314969
-0.0152104
-0.000503118
0.0142956
0.0272502
0.0463799
0.0662778
0.0822268
-0.30463
-0.303445
-0.295446
-0.278065
-0.25976
-0.237648
-0.214663
-0.193361
-0.170311
-0.150734
-0.131095
-0.111156
-0.084899
-0.068
-0.0489092
-0.0316966
-0.013432
0.00081652
0.0132178
0.0239866
0.0367437
0.0541566
0.0697136
-0.277589
-0.272529
-0.264194
-0.249938
-0.233805
-0.214427
-0.194685
-0.175737
-0.158322
-0.135799
-0.118026
-0.100126
-0.0768081
-0.0627589
-0.0465131
-0.0294382
-0.0133715
0.000750027
0.0114881
0.0220149
0.0317604
0.0460412
0.0608275
-0.244831
-0.240293
-0.231073
-0.221767
-0.208215
-0.191335
-0.175146
-0.160828
-0.144002
-0.123008
-0.105569
-0.0897723
-0.070256
-0.0575328
-0.0434233
-0.0285267
-0.0152714
-0.00109718
0.00952188
0.0189213
0.0272097
0.038462
0.0505797
-0.209856
-0.206329
-0.201731
-0.194486
-0.183511
-0.169735
-0.156674
-0.144312
-0.127606
-0.110806
-0.0928759
-0.0789051
-0.0634414
-0.0521446
-0.0398495
-0.0268032
-0.0150761
-0.00325635
0.00788504
0.0171888
0.0239034
0.0315384
0.0413333
-0.179357
-0.177906
-0.174267
-0.168069
-0.159192
-0.148031
-0.137124
-0.1257
-0.110027
-0.0974642
-0.0799844
-0.0684317
-0.0565083
-0.0466212
-0.0358779
-0.0246797
-0.01425
-0.0044173
0.00582188
0.0132821
0.0202992
0.0263244
0.0343129
-0.152935
-0.151327
-0.147673
-0.141882
-0.134059
-0.125391
-0.116534
-0.106307
-0.0934219
-0.0831372
-0.0681829
-0.0584064
-0.0494262
-0.040799
-0.0314993
-0.0219581
-0.0130441
-0.00443821
0.00413841
0.0108429
0.0171414
0.0217628
0.0279468
-0.126459
-0.124799
-0.121397
-0.116175
-0.109158
-0.102356
-0.0955042
-0.0870788
-0.0773058
-0.0687936
-0.0569167
-0.0482875
-0.0412174
-0.0343115
-0.0266758
-0.0188173
-0.0114473
-0.00419732
0.00246418
0.00812178
0.0130212
0.0169782
0.0219025
-0.0999191
-0.0984259
-0.0955053
-0.0912955
-0.0859873
-0.0798951
-0.0742579
-0.0679785
-0.0607585
-0.0536014
-0.0452017
-0.0381663
-0.0325291
-0.02731
-0.0215009
-0.0154041
-0.00957614
-0.00400779
0.00110164
0.005785
0.01009
0.0129681
0.0164063
-0.07372
-0.0724655
-0.0701064
-0.0668943
-0.062945
-0.0577967
-0.0530115
-0.0489268
-0.0441209
-0.0384321
-0.0328989
-0.0276874
-0.0232203
-0.0200285
-0.0161864
-0.0118686
-0.00756691
-0.00355336
0.000114118
0.00360633
0.00651189
0.00897212
0.0109149
-0.0462716
-0.0453127
-0.0435698
-0.0411082
-0.037737
-0.0356064
-0.0320111
-0.0292903
-0.0270779
-0.0229029
-0.0200408
-0.0162906
-0.0137842
-0.0124113
-0.0107695
-0.00839365
-0.00570948
-0.00306466
-0.000796569
0.00123899
0.00292179
0.00554284
0.00669854
-0.0178269
-0.0172823
-0.0159646
-0.0139399
-0.012364
-0.0116864
-0.0110469
-0.00977057
-0.00874821
-0.0072555
-0.00722194
-0.00511717
-0.00422801
-0.00441436
-0.0043819
-0.00399047
-0.00323563
-0.00228088
-0.00119528
1.20803e-05
0.00105993
0.00139027
0.00197864
0.906605
0.862563
0.823977
0.791064
0.867017
0.837573
0.80997
0.785407
0.819918
0.800192
0.780727
0.762875
0.771119
0.757396
0.744016
0.730906
0.72366
0.715298
0.70646
0.697268
0.680784
0.676295
0.670852
0.66467
0.644039
0.641844
0.638572
0.634411
0.6135
0.612291
0.61007
0.606996
0.588266
0.586975
0.584909
0.582181
0.566512
0.564562
0.562141
0.559315
0.54649
0.543618
0.540634
0.537537
0.526292
0.522703
0.519309
0.516037
0.504371
0.500628
0.497243
0.494095
0.480165
0.477034
0.474169
0.471528
0.455253
0.452579
0.450359
0.448442
0.429893
0.428241
0.426772
0.425423
0.40367
0.403647
0.403464
0.403013
0.378221
0.37986
0.3811
0.381765
0.353897
0.357127
0.359734
0.360934
0.329294
0.332802
0.335567
0.33786
0.306857
0.311786
0.315988
0.319506
0.284888
0.290976
0.296233
0.300658
0.260098
0.267813
0.274517
0.280182
0.23046
0.23926
0.247447
0.254896
0.202204
0.210614
0.218909
0.226791
0.17904
0.187119
0.194615
0.201453
0.158169
0.166576
0.174193
0.180808
0.139986
0.147999
0.155195
0.162228
0.122685
0.130653
0.138234
0.144973
0.107095
0.114621
0.121929
0.128746
0.0932153
0.100109
0.106602
0.113095
0.080093
0.0863177
0.0926659
0.0985287
0.0692424
0.0745733
0.07991
0.0855043
0.0587282
0.0638414
0.0684864
0.0731688
0.0494399
0.0536455
0.0581434
0.0623482
0.0409391
0.0451281
0.0488464
0.0523132
0.0334105
0.0370027
0.039773
0.0429601
0.0258084
0.0285159
0.0314958
0.0343096
0.0193802
0.0217737
0.0239123
0.0260987
0.0133346
0.0148866
0.0165511
0.0182979
0.00812848
0.00911074
0.0103474
0.0114593
0.00239556
0.003038
0.00392806
0.00445195
0.740953
0.689072
0.654474
0.627336
0.603638
0.583006
0.564624
0.547896
0.532346
0.51785
0.50424
0.492098
0.481962
0.473283
0.466034
0.460246
0.455926
0.453061
0.451633
0.749942
0.693602
0.65357
0.623268
0.597939
0.576147
0.557011
0.539875
0.524271
0.509905
0.49693
0.486366
0.477128
0.469082
0.462305
0.45686
0.452776
0.450058
0.448701
0.735818
0.688887
0.648173
0.615508
0.589424
0.567111
0.547724
0.530582
0.515206
0.501463
0.49033
0.480677
0.472041
0.464485
0.458109
0.452974
0.449114
0.446541
0.445254
0.709397
0.677607
0.639448
0.607039
0.579311
0.556481
0.537248
0.520571
0.506246
0.494384
0.484108
0.474889
0.46667
0.459514
0.453486
0.448634
0.444983
0.442548
0.441329
0.681634
0.659686
0.627705
0.597328
0.570927
0.548403
0.529214
0.513069
0.499485
0.487946
0.477841
0.468887
0.461002
0.454188
0.448471
0.443876
0.440421
0.438116
0.436963
0.653459
0.636378
0.614457
0.586166
0.561368
0.540006
0.521663
0.506018
0.49269
0.481251
0.471305
0.462602
0.455021
0.448518
0.443085
0.438729
0.435456
0.433274
0.432183
0.626336
0.61301
0.59747
0.573399
0.550543
0.530514
0.513134
0.49814
0.48523
0.474083
0.464407
0.455993
0.448715
0.442507
0.437342
0.433211
0.430112
0.428046
0.427014
0.600758
0.589785
0.577274
0.559693
0.538689
0.520062
0.503741
0.489513
0.477158
0.466434
0.457119
0.449037
0.442073
0.436158
0.431253
0.427338
0.424405
0.422452
0.421476
0.57674
0.567096
0.556151
0.543536
0.525907
0.508766
0.493584
0.480227
0.46853
0.458322
0.449436
0.441727
0.435092
0.429473
0.424824
0.42112
0.418349
0.416505
0.415585
0.554032
0.545148
0.535178
0.524364
0.51204
0.496809
0.482757
0.470349
0.459385
0.449764
0.441364
0.434061
0.427774
0.422453
0.418061
0.414567
0.411956
0.410221
0.409355
0.532158
0.52383
0.514755
0.505071
0.494806
0.48387
0.471337
0.459977
0.449761
0.440776
0.432913
0.42604
0.420112
0.415101
0.410972
0.407691
0.40524
0.403611
0.402799
0.510638
0.50289
0.494788
0.486254
0.477307
0.467998
0.458457
0.44922
0.439659
0.43138
0.424124
0.417676
0.41211
0.407421
0.403562
0.400497
0.398208
0.396685
0.395924
0.48906
0.482203
0.475151
0.467797
0.460134
0.452195
0.444128
0.436251
0.428577
0.421569
0.415036
0.40895
0.403756
0.399413
0.39584
0.392997
0.39087
0.389452
0.38874
0.467316
0.461601
0.455741
0.449619
0.443207
0.436551
0.429582
0.423013
0.4166
0.41051
0.404824
0.399594
0.394994
0.391066
0.387799
0.385182
0.38322
0.381907
0.381241
0.445371
0.441284
0.436846
0.431859
0.426444
0.420674
0.415261
0.409799
0.404337
0.399063
0.394187
0.389691
0.385635
0.382134
0.379205
0.376854
0.375091
0.373913
0.373319
0.423321
0.421076
0.418246
0.414354
0.410271
0.406056
0.401407
0.396679
0.391955
0.387348
0.383265
0.379437
0.375817
0.372737
0.370136
0.368048
0.366489
0.365445
0.36492
0.402243
0.401481
0.400121
0.397328
0.394389
0.391172
0.387417
0.38353
0.379769
0.375983
0.372308
0.368896
0.365774
0.363011
0.360665
0.358825
0.357479
0.356558
0.356096
0.382194
0.382176
0.382722
0.380864
0.37895
0.376635
0.373312
0.370408
0.367398
0.364316
0.3611
0.358164
0.355531
0.353092
0.351017
0.349366
0.34815
0.347332
0.346917
0.362172
0.363404
0.365578
0.365136
0.363813
0.362066
0.359727
0.357437
0.354991
0.352243
0.349706
0.347266
0.345035
0.342899
0.341092
0.339628
0.338532
0.337804
0.337435
0.342503
0.346397
0.349237
0.349754
0.348696
0.348315
0.346289
0.344392
0.342593
0.340171
0.338281
0.33611
0.334133
0.3324
0.330912
0.329623
0.328646
0.327988
0.327661
0.324509
0.329164
0.332797
0.333848
0.334344
0.33455
0.333018
0.331492
0.330387
0.32813
0.326499
0.324702
0.32308
0.321725
0.320526
0.319276
0.318433
0.317868
0.317594
0.306767
0.312495
0.316444
0.318151
0.31929
0.320088
0.319622
0.318996
0.31787
0.316064
0.314773
0.31335
0.311822
0.310726
0.309738
0.308689
0.307953
0.307502
0.307269
0.288002
0.295181
0.299903
0.302683
0.304605
0.305678
0.305751
0.30611
0.305022
0.303668
0.303008
0.301684
0.300503
0.299569
0.298813
0.297897
0.297239
0.296844
0.296656
0.26574
0.275818
0.282413
0.286698
0.289466
0.291123
0.292051
0.292578
0.291994
0.291244
0.290984
0.289891
0.288877
0.288256
0.287617
0.286858
0.286307
0.285991
0.285821
0.238652
0.251981
0.262107
0.269003
0.273338
0.276172
0.277793
0.278774
0.278847
0.27872
0.278488
0.277837
0.277096
0.276781
0.276132
0.275598
0.275114
0.274881
0.274738
0.212441
0.22646
0.238254
0.247773
0.254986
0.259812
0.262567
0.264417
0.265295
0.265683
0.265699
0.265564
0.265157
0.2649
0.264453
0.264008
0.263675
0.263489
0.263389
0.191206
0.202866
0.214544
0.224839
0.233537
0.240407
0.245511
0.248828
0.250842
0.251974
0.252575
0.252784
0.25277
0.252661
0.252467
0.25215
0.251937
0.251803
0.251733
0.172786
0.183813
0.193107
0.202745
0.211619
0.219321
0.225843
0.23092
0.234671
0.237098
0.238599
0.239313
0.239782
0.240001
0.240003
0.239893
0.239808
0.239744
0.239703
0.15517
0.166986
0.1756
0.182876
0.190805
0.198483
0.205396
0.211315
0.216247
0.220148
0.222948
0.224726
0.225874
0.226587
0.22688
0.227044
0.227132
0.227167
0.227167
0.138941
0.150387
0.159716
0.166237
0.172181
0.178739
0.18543
0.191543
0.196919
0.20152
0.205279
0.208272
0.210419
0.211854
0.212724
0.213276
0.213618
0.213804
0.213874
0.123435
0.134235
0.143761
0.150959
0.156289
0.161037
0.16648
0.172306
0.177717
0.182533
0.186713
0.190275
0.193129
0.195311
0.196958
0.198073
0.198786
0.199201
0.199383
0.108266
0.11942
0.127835
0.136105
0.141441
0.145602
0.149335
0.153937
0.159044
0.163826
0.168096
0.171824
0.174971
0.177547
0.179618
0.181163
0.182237
0.182909
0.183227
0.0941253
0.105151
0.113427
0.121028
0.127047
0.130967
0.13416
0.137077
0.141095
0.145631
0.149809
0.153506
0.156693
0.15937
0.161564
0.163272
0.164511
0.165315
0.165707
0.0812389
0.091403
0.0997758
0.106092
0.112748
0.116729
0.119655
0.122034
0.124351
0.128068
0.132021
0.135559
0.13863
0.141233
0.143378
0.145074
0.146327
0.147152
0.147558
0.0693957
0.0782892
0.0864564
0.0923649
0.0981088
0.102752
0.105425
0.107579
0.109336
0.111354
0.114815
0.118094
0.120941
0.123348
0.125333
0.126911
0.128087
0.128866
0.129252
0.0579358
0.0660456
0.0734704
0.0792393
0.0837682
0.0888043
0.0914584
0.0933347
0.0948707
0.0960849
0.0982398
0.101166
0.103695
0.10581
0.107552
0.108938
0.109977
0.110668
0.111012
0.0479278
0.0548791
0.0611929
0.0664553
0.0703154
0.0747254
0.0776543
0.0792199
0.0805571
0.0815631
0.0824627
0.0848341
0.0869148
0.088641
0.0900691
0.0912138
0.092076
0.092653
0.0929408
0.0387045
0.0446435
0.0494137
0.0540065
0.0574649
0.0609082
0.0637814
0.0652208
0.0663714
0.0672223
0.0677465
0.0691025
0.0705561
0.0718035
0.0728636
0.0737304
0.0743923
0.0748393
0.0750636
0.0297351
0.0341646
0.0380222
0.041765
0.0446879
0.047343
0.0497924
0.0513001
0.0522293
0.0529023
0.0533314
0.0537748
0.0544789
0.0551982
0.0558665
0.0564414
0.0568944
0.0572067
0.0573657
0.0213496
0.0243185
0.0270641
0.0296692
0.0319836
0.0338034
0.0356843
0.0372713
0.0379387
0.0384394
0.0387434
0.0384388
0.0384399
0.0386769
0.038986
0.0392921
0.0395518
0.0397389
0.039838
0.0132186
0.014908
0.0163424
0.0176738
0.0192438
0.0200401
0.0212698
0.0226065
0.0233044
0.0236293
0.0236241
0.0227067
0.0223279
0.0222485
0.0223025
0.0224076
0.0225174
0.0226053
0.0226577
0.00506147
0.00517901
0.00543083
0.00594136
0.0064358
0.0063739
0.00683022
0.00753467
0.00812822
0.0082722
0.00790262
0.00722145
0.00689348
0.00675583
0.00670878
0.00670637
0.00672267
0.00674255
0.00676026
)
;

boundaryField
{
    leftWall
    {
        type            zeroGradient;
    }
    rightWall
    {
        type            zeroGradient;
    }
    lowerWall
    {
        type            zeroGradient;
    }
    atmosphere
    {
        type            totalPressure;
        rho             rho;
        psi             none;
        gamma           1;
        p0              uniform 0;
        value           nonuniform List<scalar> 
46
(
-3.48112e-05
-3.62761e-05
-3.86814e-05
-4.17705e-05
-4.54678e-05
-5.25029e-05
-5.85266e-05
-6.45571e-05
-7.272e-05
-7.74745e-05
-8.31915e-05
-7.97706e-05
-7.99581e-05
-8.4923e-05
-8.35547e-05
-7.56213e-05
-6.46663e-05
-5.1323e-05
-3.61368e-05
-2.31182e-05
-1.28762e-05
-7.73485e-06
-2.68122e-06
-7.60484e-07
-3.4625e-07
0
0
0
0
0
0
0
0
0
0
0
0
0
0
0
0
0
0
0
0
0
)
;
    }
    defaultFaces
    {
        type            empty;
    }
}


// ************************************************************************* //
