/*--------------------------------*- C++ -*----------------------------------*\
| =========                 |                                                 |
| \\      /  F ield         | foam-extend: Open Source CFD                    |
|  \\    /   O peration     | Version:     4.1                                |
|   \\  /    A nd           | Web:         http://www.foam-extend.org         |
|    \\/     M anipulation  |                                                 |
\*---------------------------------------------------------------------------*/
FoamFile
{
    version     2.0;
    format      ascii;
    class       surfaceScalarField;
    location    "0.05";
    object      phi;
}
// * * * * * * * * * * * * * * * * * * * * * * * * * * * * * * * * * * * * * //

dimensions      [0 3 -1 0 0 0 0];

internalField   nonuniform List<scalar> 
4432
(
2.62474e-07
-2.62474e-07
5.76352e-07
-3.13884e-07
8.91841e-07
-3.15493e-07
1.14751e-06
-2.55665e-07
1.36715e-06
-2.19632e-07
1.42116e-06
-5.40071e-08
1.13259e-06
2.88566e-07
6.0486e-07
5.27718e-07
-9.3284e-07
1.53771e-06
-3.92242e-06
2.98955e-06
-6.82292e-06
2.90054e-06
-9.87907e-06
3.05616e-06
2.13659e-06
-1.20157e-05
3.55238e-05
-3.33872e-05
4.24809e-05
-6.95711e-06
3.75312e-05
4.94944e-06
2.2815e-05
1.47157e-05
1.23333e-05
1.04819e-05
8.09025e-06
4.2433e-06
5.81293e-06
2.27761e-06
4.01058e-06
1.80202e-06
1.99193e-06
2.01839e-06
1.9922e-06
2.63936e-07
-5.26415e-07
5.79237e-07
-6.2919e-07
8.96236e-07
-6.32489e-07
1.16424e-06
-5.23661e-07
1.38377e-06
-4.39164e-07
1.41537e-06
-8.56025e-08
1.19917e-06
5.04761e-07
7.28036e-07
9.98818e-07
-7.64602e-07
3.03041e-06
-3.42975e-06
5.65468e-06
-9.73462e-06
9.20542e-06
-1.17139e-05
5.03545e-06
6.58358e-06
-3.03133e-05
2.4374e-05
-5.11777e-05
3.55555e-05
-1.81384e-05
2.68583e-05
1.36466e-05
1.58671e-05
2.57069e-05
1.094e-05
1.54099e-05
7.90644e-06
7.27662e-06
6.18562e-06
3.99836e-06
4.17647e-06
3.81121e-06
2.10623e-06
4.08869e-06
4.09858e-06
2.66048e-07
-7.92468e-07
5.83619e-07
-9.46765e-07
9.01355e-07
-9.50221e-07
1.1969e-06
-8.19198e-07
1.43169e-06
-6.73961e-07
1.51126e-06
-1.65173e-07
1.35856e-06
6.57463e-07
9.50803e-07
1.40654e-06
-3.56035e-07
4.3373e-06
-2.51808e-06
7.8167e-06
-7.06979e-06
1.37571e-05
-1.66881e-05
1.46538e-05
8.39945e-06
-5.54008e-05
1.25123e-05
-5.52905e-05
1.94172e-05
-2.5043e-05
1.16294e-05
2.14347e-05
9.65794e-06
2.76784e-05
9.31047e-06
1.5758e-05
7.40998e-06
9.17683e-06
6.2326e-06
5.17536e-06
4.34831e-06
5.69515e-06
2.12135e-06
6.31564e-06
6.22003e-06
2.69182e-07
-1.06165e-06
5.89935e-07
-1.26752e-06
9.05809e-07
-1.26609e-06
1.24454e-06
-1.15793e-06
1.50069e-06
-9.3011e-07
1.66753e-06
-3.32022e-07
1.64479e-06
6.80216e-07
1.4023e-06
1.649e-06
3.18395e-07
5.42125e-06
-1.92906e-06
1.00641e-05
-7.27079e-06
1.90988e-05
-2.07838e-05
2.81668e-05
5.67847e-06
-8.18631e-05
1.7638e-05
-6.725e-05
1.57348e-05
-2.31399e-05
8.38659e-06
2.87831e-05
8.37882e-06
2.76859e-05
8.45206e-06
1.56851e-05
7.72248e-06
9.90594e-06
6.29638e-06
6.60097e-06
4.43109e-06
7.56009e-06
2.39217e-06
8.35459e-06
8.61226e-06
2.78578e-07
-1.34023e-06
5.97672e-07
-1.58662e-06
9.13531e-07
-1.58195e-06
1.29646e-06
-1.54085e-06
1.5831e-06
-1.21675e-06
1.87921e-06
-6.28141e-07
1.91374e-06
6.45708e-07
1.93881e-06
1.6239e-06
1.08372e-06
6.27636e-06
-7.82663e-07
1.19305e-05
-3.98507e-06
2.23012e-05
-1.74152e-05
4.1597e-05
-5.84216e-06
-9.34362e-05
-2.62138e-05
-4.68784e-05
-1.03581e-05
-3.89958e-05
-6.28681e-07
1.90537e-05
7.1427e-06
1.99141e-05
8.22108e-06
1.46069e-05
8.00247e-06
1.01241e-05
6.35431e-06
8.24871e-06
4.55949e-06
9.35474e-06
2.6819e-06
1.02324e-05
1.12942e-05
3.03207e-07
-1.64344e-06
6.04179e-07
-1.88759e-06
9.38725e-07
-1.91649e-06
1.33255e-06
-1.93467e-06
1.68128e-06
-1.5655e-06
2.14853e-06
-1.09539e-06
2.59219e-06
2.02076e-07
2.48947e-06
1.7266e-06
2.33773e-06
6.42807e-06
1.59392e-06
1.26744e-05
3.38104e-06
2.05141e-05
-5.62415e-06
5.06022e-05
-6.08575e-06
-9.29745e-05
-6.49568e-06
-4.64683e-05
-5.52985e-06
-3.99619e-05
9.38796e-07
1.25851e-05
6.20162e-06
1.4651e-05
7.93205e-06
1.28767e-05
7.39041e-06
1.06654e-05
6.42773e-06
9.2111e-06
4.9234e-06
1.08592e-05
3.12459e-06
1.20315e-05
1.4419e-05
3.43268e-07
-1.98671e-06
6.51206e-07
-2.19553e-06
9.78125e-07
-2.24341e-06
1.36684e-06
-2.32339e-06
1.8125e-06
-2.01115e-06
2.37906e-06
-1.66197e-06
2.73529e-06
-1.54112e-07
3.14562e-06
1.31626e-06
3.81523e-06
5.75842e-06
4.67737e-06
1.18122e-05
7.07842e-06
1.8113e-05
2.44868e-05
3.31938e-05
2.6591e-05
-9.50787e-05
1.85901e-05
-3.84675e-05
3.346e-06
-2.47181e-05
3.66743e-06
1.22641e-05
6.05473e-06
1.22634e-05
7.48573e-06
1.14456e-05
7.11422e-06
1.10368e-05
6.56694e-06
9.75811e-06
5.65061e-06
1.17757e-05
4.27843e-06
1.34041e-05
1.86976e-05
3.75963e-07
-2.36268e-06
7.33505e-07
-2.55307e-06
1.13211e-06
-2.64202e-06
1.51494e-06
-2.70622e-06
2.02906e-06
-2.52527e-06
2.65541e-06
-2.28832e-06
3.43015e-06
-9.28826e-07
4.16337e-06
5.83033e-07
5.1777e-06
4.7441e-06
6.82693e-06
1.0163e-05
1.04174e-05
1.45226e-05
1.95232e-05
2.4088e-05
-2.22421e-05
-5.33134e-05
-1.66833e-05
-4.40263e-05
-9.67097e-06
-3.17308e-05
3.69311e-06
-1.09993e-06
6.66227e-06
9.29404e-06
7.14954e-06
1.09578e-05
7.34466e-06
1.08412e-05
6.97355e-06
1.01288e-05
6.13011e-06
1.26191e-05
5.00251e-06
1.45319e-05
2.37002e-05
7.48638e-07
-7.48638e-07
1.40044e-06
-6.51788e-07
1.86813e-06
-4.68081e-07
2.08815e-06
-2.20082e-07
2.12679e-06
-3.88749e-08
2.08467e-06
4.20122e-08
1.98863e-06
9.59458e-08
1.87646e-06
1.1213e-07
1.74978e-06
1.2666e-07
1.60407e-06
1.45714e-07
1.42511e-06
1.78973e-07
1.17684e-06
2.48284e-07
9.49967e-07
2.26896e-07
7.57826e-07
1.92165e-07
5.87017e-07
1.70837e-07
4.29791e-07
1.57256e-07
2.82186e-07
1.47634e-07
1.39731e-07
1.42491e-07
1.39756e-07
7.98306e-07
-1.54737e-06
1.49645e-06
-1.34994e-06
1.95865e-06
-9.30831e-07
2.16658e-06
-4.28184e-07
2.19919e-06
-7.17566e-08
2.14539e-06
9.56675e-08
2.04614e-06
1.95102e-07
1.92882e-06
2.29411e-07
1.79298e-06
2.62494e-07
1.63554e-06
3.03171e-07
1.43547e-06
3.79076e-07
1.17862e-06
5.05173e-07
9.57618e-07
4.47939e-07
7.65938e-07
3.83895e-07
5.9405e-07
3.42777e-07
4.35707e-07
3.15659e-07
2.86118e-07
2.97273e-07
1.41631e-07
2.87046e-07
2.81408e-07
8.55088e-07
-2.40284e-06
1.65151e-06
-2.14634e-06
2.06239e-06
-1.34214e-06
2.22834e-06
-5.94302e-07
2.241e-06
-8.46502e-08
2.16697e-06
1.6955e-07
2.0679e-06
2.94079e-07
1.94274e-06
3.54526e-07
1.79604e-06
4.09181e-07
1.62344e-06
4.7578e-07
1.38111e-06
6.21438e-07
1.14661e-06
7.397e-07
9.42571e-07
6.52016e-07
7.57544e-07
5.68965e-07
5.89243e-07
5.11122e-07
4.33055e-07
4.719e-07
2.84424e-07
4.45946e-07
1.40674e-07
4.30855e-07
4.22102e-07
1.02791e-06
-3.43109e-06
1.82077e-06
-2.93916e-06
2.20831e-06
-1.73005e-06
2.31702e-06
-7.03173e-07
2.30048e-06
-6.83316e-08
2.20451e-06
2.65374e-07
2.09621e-06
4.02284e-07
1.95792e-06
4.92757e-07
1.79231e-06
5.74771e-07
1.58972e-06
6.7838e-07
1.30161e-06
9.09568e-07
1.10832e-06
9.33016e-07
9.22939e-07
8.37434e-07
7.46523e-07
7.45424e-07
5.8265e-07
6.75036e-07
4.28819e-07
6.25782e-07
2.81849e-07
5.92956e-07
1.39365e-07
5.73394e-07
5.61488e-07
1.3026e-06
-4.73397e-06
2.04439e-06
-3.68088e-06
2.38874e-06
-2.07468e-06
2.43069e-06
-7.45276e-07
2.37472e-06
-1.25655e-08
2.26114e-06
3.78794e-07
2.12626e-06
5.37061e-07
1.96614e-06
6.5281e-07
1.76176e-06
7.79125e-07
1.46598e-06
9.74158e-07
1.23211e-06
1.14345e-06
1.0728e-06
1.09235e-06
9.01685e-07
1.00859e-06
7.33373e-07
9.13777e-07
5.74235e-07
8.34214e-07
4.23283e-07
7.76784e-07
2.78588e-07
7.3769e-07
1.37873e-07
7.14161e-07
6.99382e-07
1.68915e-06
-6.42333e-06
2.38523e-06
-4.37683e-06
2.61574e-06
-2.30537e-06
2.57872e-06
-7.08399e-07
2.45561e-06
1.10359e-07
2.32336e-06
5.10889e-07
2.14073e-06
7.19581e-07
1.93143e-06
8.62029e-07
1.60148e-06
1.10904e-06
1.31e-06
1.26563e-06
1.18336e-06
1.27009e-06
1.04196e-06
1.23377e-06
8.79239e-07
1.17134e-06
7.18277e-07
1.07478e-06
5.64266e-07
9.88263e-07
4.16868e-07
9.24231e-07
2.74847e-07
8.79751e-07
1.36218e-07
8.52842e-07
8.3562e-07
2.4232e-06
-8.84667e-06
2.89786e-06
-4.85131e-06
2.88987e-06
-2.29744e-06
2.73822e-06
-5.56852e-07
2.51713e-06
3.31301e-07
2.25571e-06
7.72153e-07
1.92822e-06
1.04695e-06
1.54586e-06
1.24432e-06
1.35233e-06
1.30253e-06
1.25736e-06
1.36059e-06
1.15451e-06
1.37294e-06
1.01331e-06
1.375e-06
8.55695e-07
1.32898e-06
7.01978e-07
1.22853e-06
5.53461e-07
1.13682e-06
4.09984e-07
1.06775e-06
2.70785e-07
1.01899e-06
1.34378e-07
9.89298e-07
9.70019e-07
3.59368e-06
-1.24404e-05
3.4669e-06
-4.72425e-06
2.42438e-06
-1.25487e-06
2.11907e-06
-2.51577e-07
1.88935e-06
5.60931e-07
1.7122e-06
9.49191e-07
1.56295e-06
1.1961e-06
1.45173e-06
1.35546e-06
1.33735e-06
1.41686e-06
1.24343e-06
1.45449e-06
1.13421e-06
1.48217e-06
9.83614e-07
1.52561e-06
8.32342e-07
1.48028e-06
6.85707e-07
1.3752e-06
5.42537e-07
1.28002e-06
4.02923e-07
1.20741e-06
2.66507e-07
1.15544e-06
1.32385e-07
1.12346e-06
1.10242e-06
7.83904e-07
-3.14658e-06
1.64447e-06
-3.41364e-06
2.59951e-06
-3.59705e-06
3.67889e-06
-3.7856e-06
5.22371e-06
-4.0701e-06
6.43789e-06
-3.50251e-06
8.55385e-06
-3.04477e-06
1.10041e-05
-1.86719e-06
1.4556e-05
1.1922e-06
1.93943e-05
5.32472e-06
2.95334e-05
4.38346e-06
5.81252e-05
-4.50385e-06
7.24096e-05
-6.75978e-05
5.5041e-05
-2.66578e-05
2.49901e-05
-1.67991e-06
1.6638e-05
7.25193e-06
1.61492e-05
9.78332e-06
1.65593e-05
1.05478e-05
1.57356e-05
1.16646e-05
1.40183e-05
1.18458e-05
1.44639e-05
1.21735e-05
1.41403e-05
1.48556e-05
1.1722e-05
2.61185e-05
8.08267e-07
-3.95485e-06
1.55512e-06
-4.16049e-06
2.55634e-06
-4.59827e-06
3.53066e-06
-4.75994e-06
4.27628e-06
-4.8157e-06
5.94744e-06
-5.17366e-06
7.74938e-06
-4.84673e-06
1.05835e-05
-4.70131e-06
1.51635e-05
-3.38783e-06
2.18339e-05
-1.34562e-06
2.40568e-05
2.16049e-06
1.35829e-05
5.97012e-06
-2.13104e-05
-3.27045e-05
-6.49663e-06
-4.14717e-05
1.70943e-05
-2.52708e-05
1.99884e-05
4.35695e-06
1.83254e-05
1.14458e-05
1.60869e-05
1.27862e-05
1.57604e-05
1.19909e-05
1.46567e-05
1.29494e-05
1.51211e-05
1.17093e-05
1.76077e-05
1.23692e-05
1.05897e-05
1.87404e-05
7.84498e-07
-4.73934e-06
1.46918e-06
-4.84517e-06
2.09422e-06
-5.22332e-06
3.01521e-06
-5.68094e-06
4.44026e-06
-6.24074e-06
6.23349e-06
-6.9669e-06
8.74074e-06
-7.35399e-06
1.17628e-05
-7.7234e-06
1.56805e-05
-7.30551e-06
2.17571e-05
-7.42225e-06
2.9897e-05
-5.97944e-06
3.72808e-05
-1.41368e-06
4.34872e-05
-3.89109e-05
5.30491e-05
-5.10336e-05
3.77792e-05
-1.00008e-05
2.65106e-05
1.56256e-05
2.0486e-05
1.74699e-05
1.71804e-05
1.60914e-05
1.55932e-05
1.35777e-05
1.49435e-05
1.35991e-05
1.35589e-05
1.30942e-05
1.45392e-05
1.13893e-05
9.579e-06
1.55504e-05
6.69816e-07
-5.40916e-06
1.41247e-06
-5.58782e-06
2.16103e-06
-5.97189e-06
3.00286e-06
-6.52277e-06
3.90956e-06
-7.14744e-06
5.16893e-06
-8.22626e-06
7.073e-06
-9.25807e-06
1.02524e-05
-1.09028e-05
1.63979e-05
-1.3451e-05
2.53895e-05
-1.64139e-05
3.91411e-05
-1.9731e-05
6.58263e-05
-2.80989e-05
7.78751e-05
-5.09597e-05
7.2646e-05
-4.58045e-05
4.84684e-05
1.41765e-05
2.78312e-05
3.62632e-05
1.81641e-05
2.71366e-05
1.53676e-05
1.88877e-05
1.29583e-05
1.59871e-05
1.17531e-05
1.48046e-05
1.30686e-05
1.17789e-05
1.35776e-05
1.08808e-05
9.5486e-06
1.36084e-05
6.15159e-07
-6.02432e-06
1.22298e-06
-6.19563e-06
1.80891e-06
-6.55782e-06
2.3784e-06
-7.09227e-06
3.03545e-06
-7.80448e-06
3.88631e-06
-9.07711e-06
5.46277e-06
-1.08345e-05
8.02945e-06
-1.34694e-05
1.20866e-05
-1.75082e-05
2.00169e-05
-2.43441e-05
3.18833e-05
-3.15973e-05
5.9348e-05
-5.55636e-05
5.25368e-05
-4.41486e-05
4.07663e-05
-3.4034e-05
2.1363e-05
3.35796e-05
1.81485e-05
3.94776e-05
1.70726e-05
2.82122e-05
1.34067e-05
2.25535e-05
1.27039e-05
1.66901e-05
1.32034e-05
1.43055e-05
1.26969e-05
1.22855e-05
1.24996e-05
1.10781e-05
9.9175e-06
1.21309e-05
4.23813e-07
-6.44813e-06
8.08586e-07
-6.5804e-06
1.10838e-06
-6.85763e-06
1.34923e-06
-7.33313e-06
1.72564e-06
-8.18089e-06
2.3863e-06
-9.73775e-06
3.07125e-06
-1.15195e-05
4.91974e-06
-1.53179e-05
7.45781e-06
-2.00463e-05
1.03181e-05
-2.72044e-05
1.98377e-05
-4.1117e-05
3.91873e-05
-7.49131e-05
2.67467e-05
-3.1708e-05
1.67707e-05
-2.4058e-05
7.94484e-06
4.24054e-05
7.55658e-06
3.98655e-05
1.01919e-05
2.55766e-05
1.24337e-05
2.03116e-05
1.17481e-05
1.73757e-05
1.15877e-05
1.44661e-05
1.13938e-05
1.24789e-05
1.12695e-05
1.12018e-05
1.07101e-05
1.04767e-05
2.34718e-07
-6.68284e-06
4.24601e-07
-6.77028e-06
5.1353e-07
-6.94656e-06
4.70337e-07
-7.28994e-06
6.24524e-07
-8.33508e-06
7.26348e-07
-9.83958e-06
4.90865e-07
-1.1284e-05
-5.51539e-07
-1.42755e-05
-1.03645e-06
-1.95613e-05
-1.04791e-06
-2.7193e-05
-4.61177e-06
-3.75532e-05
-2.98051e-05
-4.97198e-05
-2.67858e-05
-3.47273e-05
-3.3783e-05
-1.70608e-05
-9.34358e-06
1.79658e-05
1.6259e-06
2.88957e-05
5.42855e-06
2.17737e-05
9.01461e-06
1.67253e-05
9.91609e-06
1.6474e-05
1.0477e-05
1.39052e-05
1.0161e-05
1.27944e-05
9.57644e-06
1.17857e-05
1.10683e-05
9.21805e-06
8.65542e-08
-6.76939e-06
1.05468e-07
-6.78919e-06
2.59967e-08
-6.86709e-06
-1.21482e-07
-7.14247e-06
-4.89841e-08
-8.40758e-06
-5.35972e-07
-9.35259e-06
-1.48084e-06
-1.03392e-05
-3.20588e-06
-1.25505e-05
-6.00365e-06
-1.67636e-05
-1.18197e-05
-2.13769e-05
-2.21278e-05
-2.72451e-05
-3.74131e-05
-3.44344e-05
-6.79789e-05
-4.16151e-06
-6.21114e-05
-2.29283e-05
-2.69121e-05
-1.72338e-05
-5.88926e-06
7.87262e-06
3.00053e-06
1.28839e-05
5.47318e-06
1.42525e-05
8.101e-06
1.38458e-05
8.6629e-06
1.33433e-05
8.75507e-06
1.27025e-05
8.53495e-06
1.2006e-05
1.13726e-05
8.23087e-06
-9.44767e-08
-6.6749e-06
-2.10502e-07
-6.67316e-06
-3.78835e-07
-6.69876e-06
-6.1528e-07
-6.90603e-06
-7.10619e-07
-8.31224e-06
-1.55997e-06
-8.50324e-06
-3.80035e-06
-8.09878e-06
-6.69056e-06
-9.66028e-06
-1.12613e-05
-1.21929e-05
-1.95151e-05
-1.31231e-05
-3.44887e-05
-1.22715e-05
-5.7082e-05
-1.18411e-05
-6.24966e-05
1.25308e-06
-5.31521e-05
-3.22729e-05
-1.86049e-05
-5.17811e-05
-6.01908e-06
-4.71324e-06
7.73124e-07
6.09189e-06
5.18859e-06
9.83714e-06
6.95339e-06
1.20811e-05
7.6208e-06
1.26754e-05
7.78255e-06
1.25406e-05
7.60103e-06
1.21878e-05
1.16449e-05
7.32912e-06
-2.25901e-07
-6.449e-06
-4.28851e-07
-6.47021e-06
-6.27303e-07
-6.5003e-06
-8.67697e-07
-6.66563e-06
-1.15982e-06
-8.02012e-06
-2.21684e-06
-7.44622e-06
-3.44634e-06
-6.86928e-06
-5.41535e-06
-7.69127e-06
-9.71656e-06
-7.89168e-06
-1.85069e-05
-4.33273e-06
-3.90746e-05
8.29622e-06
-8.76417e-05
3.6726e-05
-5.72761e-05
-2.91125e-05
-2.81115e-05
-6.14375e-05
-9.05155e-06
-7.0841e-05
2.5519e-06
-1.63165e-05
2.92456e-06
5.71947e-06
5.08396e-06
7.67653e-06
6.60571e-06
1.05591e-05
7.18787e-06
1.20926e-05
7.27585e-06
1.2452e-05
7.07115e-06
1.23924e-05
1.20277e-05
6.68845e-06
-1.64282e-07
-6.28472e-06
-2.90621e-07
-6.34387e-06
-4.72109e-07
-6.31882e-06
-8.09851e-07
-6.32789e-06
-1.78011e-06
-7.04985e-06
-2.30278e-06
-6.92355e-06
-2.94804e-06
-6.22402e-06
-3.13466e-06
-7.50464e-06
-5.94195e-06
-5.08439e-06
-1.41691e-05
3.8944e-06
-2.95885e-05
2.37157e-05
-5.68981e-05
6.40355e-05
2.46107e-05
-0.000110621
1.8555e-05
-5.53818e-05
6.27014e-06
-5.85559e-05
6.14499e-06
-1.61917e-05
6.65658e-06
5.20849e-06
6.22792e-06
8.10496e-06
6.95748e-06
9.82901e-06
7.35109e-06
1.1699e-05
7.06785e-06
1.27351e-05
6.55157e-06
1.29088e-05
1.25427e-05
6.03686e-06
-2.05469e-07
-6.07925e-06
-2.30216e-07
-6.31913e-06
-4.39527e-07
-6.10951e-06
-6.76031e-07
-6.09138e-06
-1.66985e-06
-6.05604e-06
-1.95337e-06
-6.64003e-06
-1.56607e-06
-6.61132e-06
-1.35322e-06
-7.71749e-06
1.13498e-06
-7.57258e-06
8.43194e-06
-3.40256e-06
2.32946e-05
8.85299e-06
-6.24985e-07
8.79552e-05
-6.2328e-05
-4.89183e-05
-6.00521e-05
-5.76577e-05
-2.73677e-05
-9.12405e-05
-6.06625e-06
-3.74939e-05
5.29943e-06
-6.15723e-06
9.0583e-06
4.34717e-06
9.09517e-06
9.79166e-06
8.16116e-06
1.26331e-05
7.09333e-06
1.38033e-05
6.15308e-06
1.38494e-05
1.32857e-05
5.41034e-06
-6.62677e-08
-6.01299e-06
-4.7749e-07
-5.90791e-06
-7.01999e-07
-5.885e-06
-5.83316e-07
-6.21007e-06
-8.84566e-07
-5.75479e-06
-7.80165e-07
-6.74443e-06
-1.00811e-06
-6.38337e-06
-3.80126e-07
-8.34547e-06
2.07915e-06
-1.00319e-05
8.86617e-06
-1.01896e-05
2.17792e-05
-4.06009e-06
0.00010128
8.4547e-06
4.63854e-05
5.9761e-06
3.53107e-05
-4.65833e-05
1.50976e-05
-7.10267e-05
1.47567e-05
-3.71533e-05
1.64082e-05
-7.80963e-06
1.46528e-05
6.10214e-06
1.15927e-05
1.28514e-05
8.96159e-06
1.5264e-05
6.93528e-06
1.58297e-05
5.52755e-06
1.52574e-05
1.42341e-05
4.57919e-06
-7.27069e-08
-5.94028e-06
-2.32547e-07
-5.74807e-06
-6.66365e-07
-5.45118e-06
-9.87819e-07
-5.88861e-06
-9.65055e-07
-5.77755e-06
-1.03847e-06
-6.67101e-06
-1.03887e-06
-6.38298e-06
-4.48161e-07
-8.93618e-06
2.25892e-06
-1.27389e-05
1.33702e-05
-2.13009e-05
3.55272e-05
-2.62171e-05
0.000104
-6.00182e-05
0.000123348
-1.33718e-05
0.000123114
-4.63498e-05
9.0487e-05
-3.83996e-05
4.85973e-05
4.73684e-06
2.85028e-05
1.22858e-05
1.89626e-05
1.5642e-05
1.1902e-05
1.99118e-05
7.49553e-06
1.96705e-05
5.21433e-06
1.81111e-05
3.94639e-06
1.65255e-05
1.48701e-05
3.31028e-06
-5.62415e-07
-5.37787e-06
-5.14659e-07
-5.79583e-06
-1.33681e-06
-4.62903e-06
-2.76218e-06
-4.46324e-06
-3.92814e-06
-4.61159e-06
-4.08678e-06
-6.51238e-06
-3.05898e-06
-7.41078e-06
-1.79926e-06
-1.01959e-05
-9.76821e-07
-1.35614e-05
9.99185e-06
-3.22695e-05
2.91787e-05
-4.5404e-05
2.53563e-05
-5.61958e-05
0.000117553
-0.000105569
0.000119344
-4.81405e-05
0.00012618
-4.52352e-05
9.84685e-05
3.24482e-05
4.36595e-05
6.70946e-05
2.14104e-05
3.78912e-05
1.16641e-05
2.9658e-05
6.82977e-06
2.4505e-05
4.00528e-06
2.09358e-05
2.61548e-06
1.79153e-05
1.56443e-05
1.84103e-06
-1.57986e-06
-3.79801e-06
-1.00299e-06
-6.37271e-06
-1.04562e-06
-4.5864e-06
-3.38157e-06
-2.12729e-06
-6.69107e-06
-1.30209e-06
-7.28992e-06
-5.91353e-06
-6.64646e-06
-8.05423e-06
-6.26634e-06
-1.0576e-05
-6.8522e-06
-1.29755e-05
-5.30708e-06
-3.38147e-05
3.48398e-06
-5.4195e-05
-1.79134e-05
-3.47984e-05
-1.47204e-05
-0.000108762
1.08765e-05
-7.37374e-05
1.65806e-05
-5.09389e-05
8.66869e-06
4.036e-05
1.69305e-05
5.88325e-05
1.20118e-05
4.28097e-05
8.65996e-06
3.30099e-05
4.19752e-06
2.89677e-05
2.1051e-06
2.30283e-05
1.03071e-06
1.89895e-05
1.62165e-05
4.5808e-07
-2.36446e-06
-1.43355e-06
-9.26268e-07
-7.81091e-06
1.59043e-06
-7.1031e-06
-3.03467e-06
2.49782e-06
-1.15633e-05
7.22654e-06
-8.16867e-06
-9.30815e-06
-1.27268e-05
-3.49608e-06
-1.63527e-05
-6.95018e-06
-1.60197e-05
-1.33085e-05
-1.82952e-05
-3.15392e-05
2.21334e-05
-9.46236e-05
0.000112412
-0.000125077
6.95183e-05
-6.58685e-05
3.17789e-05
-3.59981e-05
-1.09644e-05
-8.19573e-06
-1.40031e-05
4.33987e-05
-1.41741e-06
4.62465e-05
-8.95316e-07
4.22876e-05
6.516e-07
3.14632e-05
-5.45544e-07
3.01649e-05
-9.28669e-07
2.34112e-05
-1.03214e-06
1.90926e-05
1.60865e-05
-9.02438e-07
-5.13284e-06
3.69929e-06
8.48556e-07
-1.37923e-05
8.2794e-06
-1.45339e-05
-4.27329e-07
1.12045e-05
-1.74673e-05
2.42665e-05
-8.41721e-06
-1.83582e-05
-2.10425e-05
9.12925e-06
-1.92247e-05
-8.76806e-06
-5.04623e-05
1.79292e-05
-8.1555e-05
-4.46508e-07
-7.30797e-05
-0.000103099
-0.00011409
-8.40666e-05
-1.82021e-05
-0.000161756
-1.0443e-05
-4.3757e-05
7.42998e-06
-2.6069e-05
6.35572e-06
4.44726e-05
-6.90619e-06
5.95084e-05
-1.21614e-05
4.7543e-05
-8.58044e-06
2.78823e-05
-5.29677e-06
2.68809e-05
-3.93354e-06
2.20476e-05
-2.9872e-06
1.81459e-05
1.54216e-05
-2.32248e-06
-2.33036e-05
2.70029e-05
1.71618e-06
-3.88121e-05
4.65493e-05
-5.93671e-05
3.33299e-05
2.4424e-05
4.6359e-05
1.12373e-05
-4.75609e-05
7.55617e-05
-5.00833e-05
1.16516e-05
-1.73643e-06
-5.71149e-05
-7.06121e-05
8.68049e-05
-0.00014455
7.34911e-05
-0.000116563
-0.000131086
-7.68251e-05
-0.000123804
-0.000115905
-0.000122677
-7.70987e-05
-8.2563e-05
-4.42253e-05
-5.89424e-05
-2.06092e-05
2.08565e-05
-2.14261e-05
6.03255e-05
-1.52101e-05
4.13272e-05
-1.61885e-05
2.88605e-05
-1.11793e-05
2.18712e-05
-7.67024e-06
1.85381e-05
-5.70065e-06
1.61761e-05
1.3978e-05
-4.25714e-06
-3.81881e-05
6.5191e-05
-5.022e-05
-2.67802e-05
-9.19625e-05
-1.76245e-05
-4.89707e-05
-1.85678e-05
-2.20121e-05
-1.57213e-05
3.16105e-05
2.19391e-05
-5.03535e-05
9.36157e-05
-7.65963e-05
-3.08722e-05
-1.26166e-05
2.28251e-05
-3.72673e-05
9.81417e-05
-7.00311e-05
-9.83219e-05
-3.26013e-05
-0.000161234
-4.95872e-05
-0.000105691
-5.44254e-05
-7.77248e-05
-7.71314e-05
-3.62366e-05
-7.47391e-05
1.84643e-05
-3.8712e-05
2.42986e-05
-2.36219e-05
2.62368e-05
-1.61678e-05
2.1406e-05
-1.28139e-05
1.85168e-05
-1.0668e-05
1.63918e-05
-8.52866e-06
1.40367e-05
1.21734e-05
-6.72383e-06
-1.73357e-05
8.25266e-05
-3.63373e-05
-7.77856e-06
-3.43379e-05
-1.96239e-05
-1.92148e-05
-3.36909e-05
-2.67179e-05
-8.21821e-06
-1.60607e-05
1.12819e-05
-3.87737e-06
8.14324e-05
-1.34713e-05
-2.12783e-05
8.07259e-06
1.28112e-06
1.49629e-05
9.12516e-05
-3.0903e-06
-8.02688e-05
-1.84353e-05
-0.00014589
-5.31572e-05
-7.09686e-05
-6.6373e-05
-6.45091e-05
-8.56534e-05
-1.69561e-05
-6.51315e-05
-2.05736e-06
-4.44054e-05
3.57235e-06
-2.68552e-05
8.68631e-06
-1.80766e-05
1.2627e-05
-1.28598e-05
1.32996e-05
-9.506e-06
1.3038e-05
-7.31402e-06
1.18449e-05
1.04346e-05
-5.575e-06
-1.93578e-05
0.000101884
-3.18053e-05
4.66891e-06
-3.08957e-05
-2.05335e-05
-2.7848e-05
-3.67385e-05
-2.31223e-05
-1.2944e-05
-7.56028e-06
-4.28018e-06
8.79902e-06
6.50734e-05
4.43194e-07
-1.29226e-05
1.88249e-05
-1.71001e-05
6.22949e-05
4.77815e-05
3.09268e-05
-4.89007e-05
-2.65209e-05
-8.84415e-05
-2.92039e-05
-6.82857e-05
-5.38675e-05
-3.98456e-05
-4.54599e-05
-2.53635e-05
-3.6498e-05
-1.10193e-05
-2.96301e-05
-3.29573e-06
-2.4026e-05
3.08178e-06
-1.82227e-05
6.82347e-06
-1.31906e-05
8.26745e-06
-1.01156e-05
9.96311e-06
-8.1447e-06
9.87424e-06
8.52773e-06
-6.23757e-06
2.63419e-05
7.55427e-05
2.07984e-05
1.02126e-05
1.87546e-05
-1.84894e-05
8.22594e-07
-1.88067e-05
-5.11038e-06
-7.01134e-06
-5.1226e-06
-4.26764e-06
3.64768e-05
2.34741e-05
2.78355e-05
-4.28152e-06
1.7823e-05
-7.08725e-06
6.70322e-05
-1.42733e-06
4.50847e-05
-2.69528e-05
3.9453e-06
-4.73022e-05
-2.13389e-05
-4.30017e-05
-2.87455e-05
-3.24392e-05
-3.05692e-05
-2.35398e-05
-2.66417e-05
-1.49468e-05
-2.4553e-05
-5.38465e-06
-2.02916e-05
-1.17967e-06
-1.65301e-05
3.06196e-06
-1.34231e-05
5.16066e-06
-1.03514e-05
6.89173e-06
-8.31139e-06
7.8345e-06
6.91722e-06
-6.70068e-06
3.74529e-05
3.80899e-05
3.37836e-05
1.38824e-05
2.06655e-05
-5.37134e-06
9.56829e-06
-7.70944e-06
7.06862e-06
-4.51172e-06
5.03156e-06
-2.23002e-06
2.29414e-05
5.56444e-06
2.2464e-05
-3.8042e-06
2.23202e-05
-6.94325e-06
2.99532e-05
-9.05956e-06
2.30644e-05
-2.00642e-05
4.45402e-06
-2.86923e-05
-9.41586e-06
-2.91319e-05
-1.77111e-05
-2.41439e-05
-2.21271e-05
-1.91237e-05
-2.16178e-05
-1.5456e-05
-1.89664e-05
-8.0361e-06
-1.7358e-05
-2.78797e-06
-1.45803e-05
2.84594e-07
-1.23602e-05
2.94087e-06
-1.01145e-05
4.64636e-06
-7.90574e-06
5.62596e-06
5.86023e-06
-6.84869e-06
1.8585e-05
1.95052e-05
2.12495e-05
1.12184e-05
1.48203e-05
1.05756e-06
1.02494e-05
-3.13885e-06
8.33382e-06
-2.59598e-06
7.18205e-06
-1.07833e-06
1.17221e-05
1.02484e-06
1.27227e-05
-4.80396e-06
1.38195e-05
-8.04011e-06
1.49728e-05
-1.02131e-05
1.1276e-05
-1.63677e-05
4.82509e-06
-2.22415e-05
-3.15125e-06
-2.11555e-05
-9.37904e-06
-1.79159e-05
-1.20444e-05
-1.64581e-05
-1.50814e-05
-1.24189e-05
-1.48009e-05
-8.31646e-06
-1.40982e-05
-3.49035e-06
-1.24822e-05
-1.33111e-06
-1.08868e-05
1.34579e-06
-9.25903e-06
3.01887e-06
-7.58342e-06
3.95045e-06
4.67605e-06
-6.39932e-06
8.52313e-06
1.09822e-05
1.21594e-05
7.58234e-06
1.10154e-05
2.20152e-06
9.12628e-06
-1.24998e-06
7.96491e-06
-1.43418e-06
8.24239e-06
-1.35553e-06
1.2095e-05
-2.82771e-06
1.28034e-05
-5.5124e-06
1.08943e-05
-6.13136e-06
8.51863e-06
-7.83754e-06
6.87912e-06
-1.47281e-05
2.12499e-06
-1.74872e-05
-1.29156e-06
-1.77387e-05
-5.94031e-06
-1.32669e-05
-1.0698e-05
-1.17003e-05
-1.35417e-05
-9.57512e-06
-1.20132e-05
-9.84477e-06
-1.09108e-05
-4.59249e-06
-1.0885e-05
-1.3566e-06
-9.58328e-06
4.42929e-08
-8.32483e-06
1.76054e-06
-7.25398e-06
2.87956e-06
3.61735e-06
-6.19547e-06
4.64675e-06
6.33578e-06
7.5724e-06
4.65699e-06
8.05271e-06
1.7212e-06
7.47342e-06
-6.70826e-07
7.36566e-06
-1.32663e-06
8.34657e-06
-2.33668e-06
9.21825e-06
-3.69944e-06
9.09938e-06
-5.39364e-06
8.22525e-06
-5.25731e-06
6.80039e-06
-6.41254e-06
4.40096e-06
-1.23284e-05
6.54873e-07
-1.37409e-05
-2.68439e-06
-1.43992e-05
-4.36261e-06
-1.15886e-05
-7.67134e-06
-8.39149e-06
-8.16712e-06
-9.07927e-06
-1.17533e-05
-6.25844e-06
-9.26786e-06
-7.07779e-06
-8.93137e-06
-1.69293e-06
-8.53826e-06
-3.4872e-07
-7.58682e-06
8.09092e-07
-6.72465e-06
2.01726e-06
2.64773e-06
-5.75528e-06
2.79302e-06
3.54293e-06
4.76809e-06
2.68228e-06
5.39525e-06
1.09393e-06
5.32978e-06
-6.05382e-07
5.86437e-06
-1.86133e-06
6.59173e-06
-3.06416e-06
6.74581e-06
-3.85333e-06
6.77944e-06
-5.42706e-06
6.311e-06
-4.7887e-06
5.45567e-06
-5.55701e-06
2.52395e-06
-9.39658e-06
-1.64107e-07
-1.10528e-05
-3.1712e-06
-1.13922e-05
-3.85205e-06
-1.09078e-05
-5.466e-06
-6.77762e-06
-6.84019e-06
-7.70512e-06
-8.4258e-06
-4.6728e-06
-9.44669e-06
-6.05685e-06
-7.75959e-06
-3.38e-06
-7.37161e-06
-7.36732e-07
-6.69317e-06
1.30546e-07
-6.00999e-06
1.33391e-06
2.08588e-06
-5.44839e-06
1.55566e-06
1.98754e-06
2.84095e-06
1.3974e-06
3.75882e-06
1.76106e-07
4.32096e-06
-1.16725e-06
5.07458e-06
-2.6147e-06
5.15039e-06
-3.1398e-06
5.13733e-06
-3.83997e-06
4.98229e-06
-5.27177e-06
4.79885e-06
-4.60512e-06
4.49308e-06
-5.25122e-06
1.04859e-06
-5.95219e-06
-7.42824e-07
-9.26152e-06
-2.56034e-06
-9.5749e-06
-4.44804e-06
-9.02036e-06
-3.59829e-06
-7.62755e-06
-6.01443e-06
-5.28909e-06
-5.25458e-06
-5.43272e-06
-7.71616e-06
-3.59532e-06
-6.62827e-06
-4.46797e-06
-6.34776e-06
-1.01736e-06
-6.12269e-06
-9.46695e-08
-5.48263e-06
6.93675e-07
1.54413e-06
-4.94106e-06
1.12942e-06
8.58497e-07
2.13264e-06
3.94494e-07
2.98532e-06
-6.76455e-07
3.59625e-06
-1.77783e-06
4.01681e-06
-3.03488e-06
4.05912e-06
-3.18189e-06
3.81688e-06
-3.59755e-06
3.36535e-06
-4.82015e-06
3.11656e-06
-4.35639e-06
2.37852e-06
-4.51335e-06
1.08594e-06
-4.65987e-06
-6.49654e-07
-7.52622e-06
-2.28595e-06
-7.93889e-06
-3.4416e-06
-7.86496e-06
-3.79756e-06
-7.27178e-06
-4.79316e-06
-4.29364e-06
-5.23381e-06
-4.99219e-06
-5.86649e-06
-2.96277e-06
-6.4034e-06
-3.93119e-06
-5.64342e-06
-1.77748e-06
-5.31502e-06
-4.23215e-07
-4.87993e-06
2.58453e-07
1.13119e-06
-4.4671e-06
9.42104e-07
-8.33221e-08
1.88797e-06
-5.51217e-07
2.60012e-06
-1.3885e-06
3.01657e-06
-2.194e-06
3.17447e-06
-3.19249e-06
2.91569e-06
-2.92295e-06
2.86839e-06
-3.55019e-06
2.2613e-06
-4.21311e-06
2.04342e-06
-4.13866e-06
1.24603e-06
-3.71619e-06
7.78395e-07
-4.19251e-06
-4.71596e-07
-6.27649e-06
-2.19888e-06
-6.21185e-06
-2.99193e-06
-7.07211e-06
-3.91224e-06
-6.35164e-06
-3.23447e-06
-4.97154e-06
-4.76707e-06
-3.45972e-06
-4.45005e-06
-3.27992e-06
-5.52374e-06
-2.85764e-06
-4.71488e-06
-2.58647e-06
-4.6085e-06
-5.29698e-07
-4.47464e-06
1.24526e-07
7.28442e-07
-4.07191e-06
8.72412e-07
-9.55594e-07
1.64104e-06
-1.31973e-06
1.92539e-06
-1.67272e-06
2.34487e-06
-2.61325e-06
2.24738e-06
-3.09477e-06
2.09751e-06
-2.77295e-06
1.96976e-06
-3.4224e-06
1.36358e-06
-3.60698e-06
8.32534e-07
-3.60774e-06
8.08188e-07
-3.692e-06
4.02804e-07
-3.78729e-06
-6.37379e-07
-5.23647e-06
-1.42071e-06
-5.42866e-06
-2.3769e-06
-6.11605e-06
-3.23724e-06
-5.49142e-06
-3.2191e-06
-4.98979e-06
-3.84453e-06
-2.83441e-06
-3.49924e-06
-3.62532e-06
-4.47383e-06
-1.88315e-06
-4.47301e-06
-2.58738e-06
-4.23715e-06
-7.6561e-07
-3.93025e-06
-1.82374e-07
4.19799e-07
-3.62155e-06
5.70078e-07
-1.52558e-06
8.99808e-07
-1.64926e-06
1.31999e-06
-2.09267e-06
1.47045e-06
-2.76345e-06
1.39351e-06
-3.01759e-06
1.396e-06
-2.77527e-06
9.86667e-07
-3.01297e-06
6.7678e-07
-3.29705e-06
4.98759e-07
-3.42972e-06
5.72993e-07
-3.76626e-06
2.05115e-07
-3.41946e-06
-6.96463e-07
-4.33494e-06
-1.13782e-06
-4.98735e-06
-1.99949e-06
-5.25442e-06
-2.63843e-06
-4.85254e-06
-3.23049e-06
-4.3978e-06
-2.72057e-06
-3.34439e-06
-3.3612e-06
-2.98477e-06
-3.57916e-06
-1.66525e-06
-4.01726e-06
-2.14931e-06
-3.47961e-06
-1.30325e-06
-3.41839e-06
-2.43529e-07
2.85821e-07
-3.28429e-06
2.90546e-07
-1.816e-06
5.98659e-07
-1.95704e-06
9.49311e-07
-2.443e-06
9.00248e-07
-2.71408e-06
7.41788e-07
-2.85885e-06
9.34573e-07
-2.96783e-06
6.44245e-07
-2.72247e-06
4.65286e-07
-3.11797e-06
3.11042e-07
-3.27539e-06
3.23444e-07
-3.7786e-06
1.08313e-07
-3.20428e-06
-6.02063e-07
-3.62453e-06
-1.04832e-06
-4.54108e-06
-1.67902e-06
-4.62372e-06
-2.19908e-06
-4.33249e-06
-2.60094e-06
-3.99597e-06
-2.54432e-06
-3.40104e-06
-2.9614e-06
-2.56772e-06
-2.59008e-06
-2.03658e-06
-3.39326e-06
-1.34611e-06
-3.1305e-06
-1.56595e-06
-3.05894e-06
-3.14983e-07
7.67988e-08
-2.84975e-06
2.44492e-07
-2.0603e-06
5.73558e-07
-2.28572e-06
6.44146e-07
-2.51324e-06
6.10935e-07
-2.68055e-06
4.39929e-07
-2.68757e-06
5.24127e-07
-3.05179e-06
4.74103e-07
-2.67226e-06
3.11702e-07
-2.95542e-06
2.25579e-07
-3.18914e-06
1.13689e-07
-3.66661e-06
2.78089e-08
-3.11832e-06
-4.61128e-07
-3.13553e-06
-9.45746e-07
-4.05641e-06
-1.41189e-06
-4.15755e-06
-1.79833e-06
-3.94604e-06
-2.17274e-06
-3.62156e-06
-2.37647e-06
-3.19731e-06
-2.371e-06
-2.57318e-06
-2.35439e-06
-2.05316e-06
-2.7026e-06
-9.97845e-07
-2.77536e-06
-1.4931e-06
-2.7063e-06
-3.83917e-07
-9.05269e-08
-2.53879e-06
2.52185e-07
-2.31225e-06
3.95167e-07
-2.42835e-06
4.58872e-07
-2.57664e-06
4.98849e-07
-2.72027e-06
2.74388e-07
-2.46289e-06
2.99083e-07
-3.0763e-06
3.05718e-07
-2.67874e-06
2.04814e-07
-2.85439e-06
2.02763e-07
-3.18699e-06
-2.63633e-08
-3.43739e-06
-7.62984e-09
-3.13698e-06
-3.13923e-07
-2.82918e-06
-8.23254e-07
-3.54704e-06
-1.18429e-06
-3.79648e-06
-1.48833e-06
-3.64197e-06
-1.74942e-06
-3.36044e-06
-1.95305e-06
-2.99365e-06
-1.96986e-06
-2.55634e-06
-2.18488e-06
-1.83807e-06
-2.21775e-06
-9.64896e-07
-2.36357e-06
-1.34717e-06
-2.1404e-06
-6.06949e-07
-9.28382e-08
-2.13791e-06
1.7065e-07
-2.4827e-06
2.82961e-07
-2.54041e-06
3.26315e-07
-2.6198e-06
2.93751e-07
-2.68754e-06
3.05488e-07
-2.47449e-06
2.25314e-07
-2.99602e-06
2.21572e-07
-2.67491e-06
1.63262e-07
-2.796e-06
1.47164e-07
-3.17082e-06
-1.29037e-07
-3.16114e-06
-4.66365e-08
-3.21933e-06
-2.04961e-07
-2.67081e-06
-6.99748e-07
-3.05221e-06
-9.83448e-07
-3.51274e-06
-1.22666e-06
-3.39873e-06
-1.44164e-06
-3.14542e-06
-1.61155e-06
-2.8237e-06
-1.73138e-06
-2.43645e-06
-1.8571e-06
-1.71228e-06
-1.63138e-06
-1.19052e-06
-1.92097e-06
-1.05747e-06
-1.7958e-06
-7.31979e-07