/*--------------------------------*- C++ -*----------------------------------*\
| =========                 |                                                 |
| \\      /  F ield         | foam-extend: Open Source CFD                    |
|  \\    /   O peration     | Version:     4.1                                |
|   \\  /    A nd           | Web:         http://www.foam-extend.org         |
|    \\/     M anipulation  |                                                 |
\*---------------------------------------------------------------------------*/
FoamFile
{
    version     2.0;
    format      ascii;
    class       surfaceScalarField;
    location    "0.05";
    object      phi_0;
}
// * * * * * * * * * * * * * * * * * * * * * * * * * * * * * * * * * * * * * //

dimensions      [0 3 -1 0 0 0 0];

internalField   nonuniform List<scalar> 
4432
(
1.50243e-07
-1.50243e-07
3.08918e-07
-1.58704e-07
4.48621e-07
-1.39694e-07
5.21169e-07
-7.25376e-08
4.62838e-07
5.83219e-08
2.24433e-07
2.3839e-07
-2.44283e-07
4.68737e-07
-1.16173e-06
9.17441e-07
-3.00405e-06
1.84231e-06
-6.27995e-06
3.27588e-06
-9.60116e-06
3.32122e-06
-1.06126e-05
1.01144e-06
-4.71205e-07
-1.01414e-05
3.30494e-05
-3.35207e-05
4.06896e-05
-7.64031e-06
3.39403e-05
6.74927e-06
1.90304e-05
1.49098e-05
9.87837e-06
9.15236e-06
6.39927e-06
3.47881e-06
4.5843e-06
1.8147e-06
3.17441e-06
1.40968e-06
1.58104e-06
1.5934e-06
1.5809e-06
1.52549e-07
-3.02776e-07
3.14195e-07
-3.20371e-07
4.57207e-07
-2.82717e-07
5.42312e-07
-1.57634e-07
4.97474e-07
1.03174e-07
2.52093e-07
4.83739e-07
-1.88865e-07
9.09703e-07
-1.02185e-06
1.75042e-06
-2.83641e-06
3.65687e-06
-5.90376e-06
6.34322e-06
-1.21771e-05
9.59462e-06
-2.11475e-05
9.98181e-06
3.73286e-06
-3.50218e-05
2.06628e-05
-5.04506e-05
3.27072e-05
-1.96847e-05
2.37808e-05
1.56755e-05
1.28377e-05
2.58529e-05
8.73377e-06
1.32565e-05
6.22362e-06
5.98883e-06
4.85433e-06
3.18418e-06
3.28976e-06
2.9742e-06
1.67622e-06
3.2072e-06
3.25719e-06
1.563e-07
-4.59067e-07
3.23442e-07
-4.87514e-07
4.72328e-07
-4.31616e-07
5.81907e-07
-2.67216e-07
5.68868e-07
1.16232e-07
3.72441e-07
6.80143e-07
-6.96148e-08
1.35176e-06
-7.06279e-07
2.38707e-06
-2.68963e-06
5.64023e-06
-5.09481e-06
8.7484e-06
-9.77228e-06
1.42721e-05
-8.23951e-06
8.44905e-06
3.14461e-06
-4.64059e-05
1.17777e-05
-5.90837e-05
1.48241e-05
-2.27313e-05
8.36736e-06
2.21327e-05
7.66116e-06
2.65591e-05
7.29462e-06
1.36232e-05
5.77836e-06
7.50488e-06
4.87152e-06
4.09145e-06
3.39943e-06
4.44606e-06
1.70264e-06
4.90453e-06
4.95996e-06
1.61093e-07
-6.20159e-07
3.36508e-07
-6.62917e-07
4.93399e-07
-5.8852e-07
6.36746e-07
-4.10575e-07
6.71519e-07
8.14751e-08
5.4553e-07
8.06118e-07
1.45446e-07
1.75184e-06
-3.01367e-07
2.83387e-06
-1.69326e-06
7.03212e-06
-4.10982e-06
1.1165e-05
-1.03226e-05
2.04849e-05
-3.55776e-05
3.3704e-05
5.93928e-06
-8.79227e-05
1.31409e-05
-6.62852e-05
1.27969e-05
-2.23875e-05
4.71744e-06
3.02122e-05
6.03094e-06
2.52453e-05
6.39955e-06
1.3255e-05
5.89288e-06
8.01172e-06
4.88198e-06
5.10285e-06
3.45214e-06
5.87583e-06
1.91312e-06
6.44415e-06
6.87309e-06
1.69377e-07
-7.89544e-07
3.52719e-07
-8.46241e-07
5.21081e-07
-7.56892e-07
6.99492e-07
-5.89002e-07
7.98833e-07
-1.78535e-08
7.729e-07
8.3204e-07
4.84012e-07
2.04073e-06
2.5578e-07
3.0621e-06
-7.94481e-07
8.08239e-06
-3.21522e-06
1.35857e-05
-7.06709e-06
2.43367e-05
-3.06701e-05
5.7307e-05
-4.65242e-06
-0.00011394
-2.53159e-05
-4.56219e-05
-1.22632e-05
-3.54403e-05
-2.67877e-06
2.06283e-05
4.72918e-06
1.78372e-05
5.95506e-06
1.20296e-05
6.06611e-06
7.90093e-06
4.89777e-06
6.27142e-06
3.55035e-06
7.22323e-06
2.14225e-06
7.85267e-06
9.01522e-06
1.86939e-07
-9.76495e-07
3.71661e-07
-1.03095e-06
5.61035e-07
-9.46272e-07
7.57203e-07
-7.85185e-07
9.44643e-07
-2.05285e-07
1.04895e-06
7.27721e-07
9.91429e-07
2.09826e-06
3.35116e-07
3.71842e-06
3.59644e-07
8.05786e-06
-5.50973e-07
1.44963e-05
2.06728e-06
2.17185e-05
1.29418e-05
4.64325e-05
-1.13562e-05
-8.96425e-05
-8.07039e-06
-4.89077e-05
-9.08432e-06
-3.44264e-05
-1.22606e-06
1.27706e-05
3.8505e-06
1.27608e-05
5.69951e-06
1.01808e-05
5.5694e-06
8.03103e-06
4.94781e-06
6.89287e-06
3.83806e-06
8.33293e-06
2.44759e-06
9.2433e-06
1.14627e-05
2.13344e-07
-1.18985e-06
4.13462e-07
-1.23105e-06
6.11427e-07
-1.14424e-06
8.16311e-07
-9.90081e-07
1.09806e-06
-4.87023e-07
1.33626e-06
4.89507e-07
1.29303e-06
2.14148e-06
1.44814e-06
3.5633e-06
1.4141e-06
8.09189e-06
2.20155e-06
1.37089e-05
5.32375e-06
1.85963e-05
2.9582e-05
2.21743e-05
3.20246e-05
-9.20852e-05
1.64101e-05
-3.32932e-05
-3.46387e-06
-1.45525e-05
6.5014e-07
8.65668e-06
3.62211e-06
9.78879e-06
5.35431e-06
8.4488e-06
5.38257e-06
8.00253e-06
5.07818e-06
7.19693e-06
4.45702e-06
8.95411e-06
3.36273e-06
1.03377e-05
1.48254e-05
2.41179e-07
-1.43104e-06
4.74724e-07
-1.4646e-06
7.2142e-07
-1.39093e-06
9.52448e-07
-1.22112e-06
1.27282e-06
-8.07395e-07
1.65214e-06
1.10193e-07
1.84332e-06
1.9503e-06
2.11777e-06
3.28885e-06
2.54911e-06
7.66056e-06
3.39568e-06
1.28623e-05
5.86309e-06
1.61289e-05
1.17609e-05
1.62764e-05
-2.5688e-05
-5.46362e-05
-2.3707e-05
-3.52741e-05
-1.19823e-05
-2.62773e-05
3.30664e-07
-3.65617e-06
4.04328e-06
6.07596e-06
5.12799e-06
7.36408e-06
5.60237e-06
7.52803e-06
5.45717e-06
7.34205e-06
4.8752e-06
9.53605e-06
3.89482e-06
1.13181e-05
1.87202e-05
6.499e-07
-6.499e-07
1.20211e-06
-5.52206e-07
1.5898e-06
-3.8769e-07
1.77606e-06
-1.86268e-07
1.81118e-06
-3.51485e-08
1.77709e-06
3.40918e-08
1.6967e-06
8.03892e-08
1.60045e-06
9.61589e-08
1.49158e-06
1.08882e-07
1.36419e-06
1.27417e-07
1.20604e-06
1.58107e-07
1.00215e-06
2.03733e-07
8.16076e-07
1.85992e-07
6.54727e-07
1.61393e-07
5.09127e-07
1.4568e-07
3.73957e-07
1.35242e-07
2.45815e-07
1.28064e-07
1.21812e-07
1.23936e-07
1.21611e-07
6.95357e-07
-1.34525e-06
1.27994e-06
-1.1368e-06
1.66683e-06
-7.7459e-07
1.84376e-06
-3.63207e-07
1.87379e-06
-6.51943e-08
1.83036e-06
7.74579e-08
1.74765e-06
1.63157e-07
1.64656e-06
1.97267e-07
1.52951e-06
2.25869e-07
1.39119e-06
2.65507e-07
1.21647e-06
3.32661e-07
1.00797e-06
4.12189e-07
8.24687e-07
3.69349e-07
6.63025e-07
3.23176e-07
5.16122e-07
2.92547e-07
3.79556e-07
2.71756e-07
2.49582e-07
2.57774e-07
1.23638e-07
2.49766e-07
2.45099e-07
7.47511e-07
-2.09275e-06
1.40414e-06
-1.79343e-06
1.75378e-06
-1.12421e-06
1.89614e-06
-5.05543e-07
1.9096e-06
-7.85763e-08
1.84965e-06
1.37482e-07
1.766e-06
2.46824e-07
1.65808e-06
3.05037e-07
1.53142e-06
3.52397e-07
1.37999e-06
4.16798e-07
1.17846e-06
5.34151e-07
9.85205e-07
6.05475e-07
8.13423e-07
5.41166e-07
6.56681e-07
4.79962e-07
5.12477e-07
4.36661e-07
3.77501e-07
4.06689e-07
2.48295e-07
3.8676e-07
1.22917e-07
3.75066e-07
3.67898e-07
8.92202e-07
-2.98493e-06
1.54326e-06
-2.44446e-06
1.87614e-06
-1.45701e-06
1.9713e-06
-6.00658e-07
1.96058e-06
-6.77874e-08
1.88282e-06
2.15284e-07
1.78954e-06
3.40071e-07
1.67027e-06
4.2417e-07
1.52658e-06
4.96018e-07
1.35054e-06
5.92801e-07
1.12416e-06
7.60557e-07
9.57018e-07
7.7265e-07
7.98577e-07
6.99584e-07
6.48271e-07
6.30252e-07
5.07423e-07
5.77396e-07
3.7423e-07
5.39853e-07
2.46293e-07
5.14521e-07
1.21899e-07
4.99403e-07
4.89704e-07
1.12176e-06
-4.10664e-06
1.72614e-06
-3.04883e-06
2.02682e-06
-1.75763e-06
2.0673e-06
-6.41171e-07
2.02472e-06
-2.51987e-08
1.93164e-06
3.08345e-07
1.81474e-06
4.56944e-07
1.67467e-06
5.64169e-07
1.49848e-06
6.72228e-07
1.26258e-06
8.28737e-07
1.07218e-06
9.51001e-07
9.29699e-07
9.15143e-07
7.82467e-07
8.46744e-07
6.38276e-07
7.74388e-07
5.00964e-07
7.14588e-07
3.69942e-07
6.70861e-07
2.43735e-07
6.40589e-07
1.20723e-07
6.22372e-07
6.10352e-07
1.42993e-06
-5.53654e-06
2.00949e-06
-3.62847e-06
2.21663e-06
-1.9648e-06
2.19276e-06
-6.17474e-07
2.09555e-06
7.19159e-08
1.98294e-06
4.20871e-07
1.82426e-06
6.15592e-07
1.63933e-06
7.49101e-07
1.37907e-06
9.32559e-07
1.15303e-06
1.05484e-06
1.03293e-06
1.07114e-06
9.05691e-07
1.04236e-06
7.65677e-07
9.86651e-07
6.26874e-07
9.13119e-07
4.93303e-07
8.48049e-07
3.64944e-07
7.99219e-07
2.40789e-07
7.64638e-07
1.19408e-07
7.43713e-07
7.29699e-07
2.03702e-06
-7.57357e-06
2.44759e-06
-4.03922e-06
2.44714e-06
-1.96453e-06
2.32693e-06
-4.97468e-07
2.13895e-06
2.59745e-07
1.91636e-06
6.43346e-07
1.65414e-06
8.7779e-07
1.36684e-06
1.03641e-06
1.2021e-06
1.09737e-06
1.10732e-06
1.14968e-06
1.00858e-06
1.16988e-06
8.84141e-07
1.16674e-06
7.48281e-07
1.12239e-06
6.14544e-07
1.04678e-06
4.8495e-07
9.77552e-07
3.59539e-07
9.24637e-07
2.3757e-07
8.86528e-07
1.17937e-07
8.63307e-07
8.47588e-07
2.99132e-06
-1.0565e-05
2.93067e-06
-3.9784e-06
2.125e-06
-1.15881e-06
1.88557e-06
-2.58019e-07
1.68454e-06
4.60773e-07
1.52863e-06
7.99241e-07
1.39466e-06
1.0118e-06
1.28715e-06
1.14396e-06
1.18385e-06
1.20071e-06
1.09438e-06
1.23916e-06
9.92175e-07
1.27205e-06
8.62773e-07
1.29607e-06
7.30891e-07
1.25417e-06
6.02078e-07
1.17554e-06
4.76412e-07
1.10316e-06
3.53942e-07
1.04711e-06
2.34151e-07
1.00626e-06
1.16331e-07
9.81084e-07
9.63892e-07
5.36255e-07
-1.9673e-06
1.12555e-06
-2.05389e-06
1.76702e-06
-2.03239e-06
2.47742e-06
-1.93152e-06
3.41688e-06
-1.74685e-06
4.36122e-06
-8.34151e-07
5.46184e-06
8.49673e-07
6.76055e-06
1.99015e-06
8.66656e-06
5.75454e-06
1.08999e-05
1.0629e-05
1.43116e-05
1.27171e-05
2.19356e-05
8.65235e-06
3.63923e-05
-6.90928e-05
2.47455e-05
-2.36274e-05
8.97551e-06
-1.05073e-05
8.26555e-06
-2.94596e-06
1.0726e-05
3.61564e-06
1.223e-05
5.86034e-06
1.22488e-05
7.50871e-06
1.13595e-05
8.23168e-06
1.19999e-05
8.89564e-06
1.20338e-05
1.12842e-05
9.46111e-06
2.12929e-05
5.81282e-07
-2.54859e-06
1.14994e-06
-2.62256e-06
1.8718e-06
-2.75424e-06
2.60672e-06
-2.66645e-06
3.23186e-06
-2.372e-06
4.48397e-06
-2.08626e-06
6.43869e-06
-1.10505e-06
8.19061e-06
2.38232e-07
1.1366e-05
2.57915e-06
1.52995e-05
6.69546e-06
1.39147e-05
1.41019e-05
-9.02588e-06
3.15929e-05
-2.54123e-05
-5.27064e-05
-7.50093e-06
-4.15387e-05
1.07822e-05
-2.87905e-05
1.39692e-05
-6.13297e-06
1.37094e-05
3.87552e-06
1.29393e-05
6.63064e-06
1.29369e-05
7.51088e-06
1.23206e-05
8.84823e-06
1.27155e-05
8.50074e-06
1.46201e-05
9.37953e-06
8.23339e-06
1.58473e-05
5.85023e-07
-3.13361e-06
1.13472e-06
-3.17226e-06
1.70491e-06
-3.32443e-06
2.51359e-06
-3.47513e-06
3.76317e-06
-3.62158e-06
5.40992e-06
-3.73302e-06
7.83337e-06
-3.52851e-06
1.11133e-05
-3.04167e-06
1.48588e-05
-1.16642e-06
2.05209e-05
1.03342e-06
2.94525e-05
5.1703e-06
4.8528e-05
1.25175e-05
4.0643e-05
-4.48214e-05
4.58487e-05
-4.67444e-05
3.02396e-05
-1.31812e-05
2.18105e-05
2.29613e-06
1.74645e-05
8.22173e-06
1.4897e-05
9.19829e-06
1.36889e-05
8.71909e-06
1.30751e-05
9.46208e-06
1.1964e-05
9.61163e-06
1.26371e-05
8.70669e-06
7.42821e-06
1.34421e-05
5.33774e-07
-3.66738e-06
1.13263e-06
-3.77113e-06
1.79764e-06
-3.98943e-06
2.61431e-06
-4.29181e-06
3.65073e-06
-4.658e-06
5.12601e-06
-5.20832e-06
7.27381e-06
-5.6763e-06
1.06134e-05
-6.38126e-06
1.7108e-05
-7.66105e-06
2.68702e-05
-8.72878e-06
4.23712e-05
-1.03306e-05
7.30085e-05
-1.81199e-05
7.36381e-05
-4.5451e-05
6.71315e-05
-4.02377e-05
4.18319e-05
1.21186e-05
2.53777e-05
1.87506e-05
1.77957e-05
1.58038e-05
1.49647e-05
1.20293e-05
1.26382e-05
1.10458e-05
1.12935e-05
1.08067e-05
1.18476e-05
9.05743e-06
1.21413e-05
8.41331e-06
7.54302e-06
1.20262e-05
4.93269e-07
-4.16065e-06
1.00894e-06
-4.2868e-06
1.57385e-06
-4.55434e-06
2.25172e-06
-4.96967e-06
3.09154e-06
-5.49782e-06
4.33067e-06
-6.44746e-06
6.48127e-06
-7.82691e-06
9.91688e-06
-9.81687e-06
1.49913e-05
-1.27355e-05
2.38044e-05
-1.75419e-05
3.60294e-05
-2.25557e-05
5.40446e-05
-3.61351e-05
5.7667e-05
-4.90734e-05
4.66015e-05
-2.91722e-05
2.99864e-05
2.87336e-05
2.25716e-05
2.61656e-05
1.88509e-05
1.95242e-05
1.44929e-05
1.63872e-05
1.28785e-05
1.26602e-05
1.25773e-05
1.11076e-05
1.19206e-05
9.71406e-06
1.14554e-05
8.87867e-06
8.01626e-06
1.09824e-05
3.48556e-07
-4.50921e-06
6.94769e-07
-4.63301e-06
1.03722e-06
-4.8968e-06
1.41773e-06
-5.35018e-06
2.04613e-06
-6.12622e-06
3.15253e-06
-7.55386e-06
4.59026e-06
-9.26464e-06
7.47275e-06
-1.26994e-05
1.14992e-05
-1.67619e-05
1.75496e-05
-2.35923e-05
3.12761e-05
-3.62821e-05
6.57203e-05
-7.05793e-05
4.0979e-05
-2.4332e-05
3.64982e-05
-2.46914e-05
2.36287e-05
4.16032e-05
1.6447e-05
3.33474e-05
1.46979e-05
2.12733e-05
1.42219e-05
1.68633e-05
1.25393e-05
1.43429e-05
1.16826e-05
1.19645e-05
1.10541e-05
1.03429e-05
1.06197e-05
9.31301e-06
8.90809e-06
9.72809e-06
1.94852e-07
-4.70407e-06
3.70801e-07
-4.80895e-06
5.02782e-07
-5.02879e-06
6.22785e-07
-5.47018e-06
9.87595e-07
-6.49104e-06
1.38527e-06
-7.95153e-06
1.79711e-06
-9.67649e-06
1.66143e-06
-1.25637e-05
2.96676e-06
-1.80672e-05
5.31456e-06
-2.59401e-05
6.25493e-06
-3.72225e-05
-1.10046e-05
-5.33197e-05
-3.13599e-06
-3.22007e-05
-1.06432e-05
-1.7184e-05
6.10151e-06
2.48583e-05
9.92913e-06
2.95198e-05
1.02133e-05
2.09893e-05
1.1513e-05
1.55634e-05
1.11711e-05
1.46849e-05
1.09257e-05
1.22103e-05
1.01474e-05
1.11217e-05
9.28584e-06
1.01744e-05
9.49228e-06
8.70143e-06
3.63858e-08
-4.74045e-06
4.73974e-08
-4.81996e-06
3.85154e-08
-5.01991e-06
2.17881e-08
-5.45345e-06
2.33899e-07
-6.70316e-06
-5.61822e-09
-7.712e-06
-6.40097e-07
-9.04201e-06
-1.67983e-06
-1.15239e-05
-3.25645e-06
-1.64906e-05
-6.42815e-06
-2.27684e-05
-1.20999e-05
-3.15508e-05
-1.55611e-05
-4.98585e-05
-4.95991e-05
1.83731e-06
-4.3926e-05
-2.28571e-05
-1.38296e-05
-5.23831e-06
1.55488e-06
1.41354e-05
7.53379e-06
1.50105e-05
8.23727e-06
1.48596e-05
9.51414e-06
1.34083e-05
9.29017e-06
1.24342e-05
8.89025e-06
1.15215e-05
8.36042e-06
1.07041e-05
1.00263e-05
7.82598e-06
-1.58828e-07
-4.58162e-06
-3.26161e-07
-4.65263e-06
-5.12338e-07
-4.83373e-06
-6.91687e-07
-5.2741e-06
-8.13008e-07
-6.58184e-06
-1.45307e-06
-7.07195e-06
-3.16313e-06
-7.33195e-06
-5.50587e-06
-9.1812e-06
-9.74196e-06
-1.22545e-05
-1.76376e-05
-1.48728e-05
-3.31469e-05
-1.60415e-05
-6.7078e-05
-1.59274e-05
-6.48191e-05
-4.21655e-07
-5.38888e-05
-3.37873e-05
-1.41296e-05
-4.49975e-05
-6.23466e-07
6.29281e-07
3.66974e-06
1.07174e-05
6.81161e-06
1.17173e-05
7.86351e-06
1.23567e-05
8.0116e-06
1.22859e-05
7.79511e-06
1.17373e-05
7.36545e-06
1.11337e-05
1.04566e-05
6.93533e-06
-2.84066e-07
-4.29755e-06
-5.5369e-07
-4.38301e-06
-8.23539e-07
-4.56388e-06
-1.14908e-06
-4.94857e-06
-1.52461e-06
-6.20631e-06
-2.42882e-06
-6.16774e-06
-3.69749e-06
-6.06328e-06
-5.83212e-06
-7.04657e-06
-1.0314e-05
-7.77268e-06
-1.92495e-05
-5.9373e-06
-3.82999e-05
3.0089e-06
-7.68093e-05
2.2582e-05
-5.47236e-05
-2.25073e-05
-2.68319e-05
-6.1679e-05
-6.04791e-06
-6.57816e-05
2.1076e-06
-7.5264e-06
3.2328e-06
9.5923e-06
5.43944e-06
9.5099e-06
6.67364e-06
1.11224e-05
7.09901e-06
1.18608e-05
7.04017e-06
1.17962e-05
6.72791e-06
1.14458e-05
1.09266e-05
6.25809e-06
-2.87394e-07
-4.01016e-06
-5.6562e-07
-4.10479e-06
-8.99434e-07
-4.23007e-06
-1.38077e-06
-4.46724e-06
-2.22786e-06
-5.35922e-06
-2.84318e-06
-5.55242e-06
-3.66831e-06
-5.23815e-06
-4.25458e-06
-6.4603e-06
-7.00049e-06
-5.02677e-06
-1.48172e-05
1.87941e-06
-3.07964e-05
1.89881e-05
-6.58742e-05
5.76598e-05
2.28969e-05
-0.000111278
1.49168e-05
-5.36989e-05
8.40539e-06
-5.92702e-05
7.91142e-06
-7.03267e-06
6.35085e-06
1.11527e-05
5.74543e-06
1.01155e-05
6.40851e-06
1.04591e-05
6.76189e-06
1.15069e-05
6.51406e-06
1.20441e-05
6.03113e-06
1.19288e-05
1.14178e-05
5.53985e-06
-3.9727e-07
-3.61289e-06
-6.27305e-07
-3.87475e-06
-9.61623e-07
-3.89575e-06
-1.42741e-06
-4.00145e-06
-2.39157e-06
-4.39506e-06
-2.76846e-06
-5.17553e-06
-2.63234e-06
-5.37427e-06
-2.76414e-06
-6.32851e-06
-1.28801e-06
-6.5029e-06
4.01438e-06
-3.42299e-06
1.51596e-05
7.84288e-06
1.29368e-06
7.15257e-05
-5.45134e-05
-5.54714e-05
-5.17613e-05
-5.6451e-05
-2.71683e-05
-8.38634e-05
-7.01681e-06
-2.71844e-05
3.94173e-06
1.94465e-07
7.4259e-06
6.63117e-06
7.67589e-06
1.02091e-05
7.06076e-06
1.21221e-05
6.25091e-06
1.28537e-05
5.49519e-06
1.26846e-05
1.20445e-05
4.86843e-06
-5.5062e-07
-3.06227e-06
-1.18125e-06
-3.24412e-06
-1.50229e-06
-3.57471e-06
-1.4397e-06
-4.06403e-06
-1.86478e-06
-3.96998e-06
-1.83166e-06
-5.20865e-06
-2.08202e-06
-5.12392e-06
-1.50737e-06
-6.90316e-06
1.51637e-07
-8.1619e-06
4.5464e-06
-7.81775e-06
1.25174e-05
-1.28136e-07
5.29265e-05
3.11166e-05
2.19048e-05
-2.44496e-05
1.80401e-05
-5.25864e-05
9.16074e-06
-7.4984e-05
9.09427e-06
-2.7118e-05
1.25087e-05
-3.22026e-06
1.16942e-05
7.4454e-06
9.5161e-06
1.2387e-05
7.52371e-06
1.41147e-05
5.9401e-06
1.44374e-05
4.82519e-06
1.37994e-05
1.28169e-05
4.05272e-06
-8.68636e-07
-2.19363e-06
-1.53825e-06
-2.57451e-06
-2.08457e-06
-3.02838e-06
-2.39252e-06
-3.75608e-06
-2.26046e-06
-4.10204e-06
-2.19236e-06
-5.27675e-06
-1.95746e-06
-5.35882e-06
-1.24273e-06
-7.61788e-06
1.64232e-06
-1.10469e-05
1.14495e-05
-1.76249e-05
3.18003e-05
-2.0479e-05
0.000114392
-5.14753e-05
9.46904e-05
-4.74784e-06
9.13678e-05
-4.92639e-05
5.8049e-05
-4.16652e-05
3.3314e-05
-2.38271e-06
2.20184e-05
8.07538e-06
1.51596e-05
1.43044e-05
1.00161e-05
1.75305e-05
6.48864e-06
1.76421e-05
4.62067e-06
1.63053e-05
3.51152e-06
1.49084e-05
1.33967e-05
2.93168e-06
-1.72929e-06
-4.64333e-07
-2.70681e-06
-1.597e-06
-3.46357e-06
-2.27162e-06
-4.48514e-06
-2.7345e-06
-5.25884e-06
-3.32834e-06
-5.13055e-06
-5.40504e-06
-4.11751e-06
-6.37186e-06
-2.75698e-06
-8.9784e-06
-1.69301e-06
-1.21109e-05
9.69768e-06
-2.90156e-05
3.08606e-05
-4.16419e-05
4.26796e-05
-6.32943e-05
0.000122558
-8.46264e-05
0.000125892
-5.25977e-05
0.000124425
-4.0198e-05
7.57322e-05
4.63102e-05
3.37993e-05
5.00084e-05
1.79207e-05
3.0183e-05
1.001e-05
2.54412e-05
5.94316e-06
2.17088e-05
3.514e-06
1.87343e-05
2.32346e-06
1.60989e-05
1.40805e-05
1.63961e-06
-3.82957e-06
3.36523e-06
-4.56945e-06
-8.57126e-07
-5.00145e-06
-1.83963e-06
-6.46616e-06
-1.26979e-06
-8.13077e-06
-1.66373e-06
-8.09625e-06
-5.43957e-06
-7.23091e-06
-7.23719e-06
-6.38201e-06
-9.8273e-06
-6.45923e-06
-1.20337e-05
-4.19438e-06
-3.12805e-05
2.8283e-06
-4.86646e-05
-3.10309e-05
-2.94351e-05
1.69681e-06
-0.000117354
7.50356e-06
-5.84045e-05
1.73416e-05
-5.00359e-05
1.82988e-05
4.53531e-05
1.63926e-05
5.19144e-05
1.03186e-05
3.6257e-05
7.21551e-06
2.85442e-05
3.53586e-06
2.53882e-05
1.73304e-06
2.0537e-05
8.24725e-07
1.70071e-05
1.45256e-05
3.79517e-07
-5.36412e-06
8.72934e-06
-7.03567e-06
8.14426e-07
-5.44499e-06
-3.4303e-06
-7.59555e-06
8.8077e-07
-1.32787e-05
4.01943e-06
-9.32304e-06
-9.39524e-06
-1.26789e-05
-3.8813e-06
-1.66567e-05
-5.8495e-06
-1.59213e-05
-1.27691e-05
-1.9395e-05
-2.78068e-05
2.14326e-05
-8.94922e-05
0.000105973
-0.000113976
3.76284e-05
-4.90094e-05
2.31134e-05
-4.38897e-05
-1.72496e-05
-9.67266e-06
-8.46732e-06
3.65706e-05
1.39062e-06
4.20563e-05
2.57989e-07
3.73895e-05
6.40966e-07
2.81608e-05
-5.30066e-07
2.6559e-05
-8.56654e-07
2.08636e-05
-9.45804e-07
1.70963e-05
1.44199e-05
-8.40316e-07
-1.01273e-05
1.88567e-05
-1.05239e-05
1.21094e-06
-4.5898e-06
-9.36435e-06
-8.61503e-06
4.90601e-06
-2.04573e-05
1.58617e-05
-7.03491e-06
-2.28177e-05
-2.27473e-05
1.18311e-05
-2.10478e-05
-7.54902e-06
-4.30375e-05
9.22055e-06
-7.79625e-05
7.11823e-06
-7.44529e-05
-9.30018e-05
-9.02355e-05
-9.8193e-05
8.92424e-06
-0.000148169
5.86354e-06
-4.08289e-05
1.67678e-05
-2.05772e-05
1.14816e-05
4.18567e-05
-3.15753e-06
5.66954e-05
-9.4355e-06
4.3667e-05
-7.37874e-06
2.61038e-05
-4.76388e-06
2.39442e-05
-3.59989e-06
1.96997e-05
-2.78424e-06
1.62806e-05
1.38353e-05
-2.19964e-06
-3.52161e-05
5.40728e-05
-2.38431e-05
-1.01621e-05
1.1937e-05
-4.51445e-05
2.17786e-05
-4.93556e-06
4.24315e-05
-4.79121e-06
-3.77785e-05
5.73924e-05
-6.57275e-05
3.97801e-05
1.50832e-06
-7.47848e-05
-4.73421e-05
5.8071e-05
-0.000135996
9.57721e-05
-0.000125316
-0.000103681
-8.96571e-05
-0.000133852
-0.000121459
-0.000116367
-7.27411e-05
-8.95469e-05
-3.89933e-05
-5.43252e-05
-1.90326e-05
2.1896e-05
-1.93686e-05
5.70311e-05
-1.40378e-05
3.8336e-05
-1.43706e-05
2.64367e-05
-1.02603e-05
1.9834e-05
-7.3273e-06
1.67667e-05
-5.5406e-06
1.44939e-05
1.24715e-05
-4.17671e-06
-2.1848e-05
7.59208e-05
-3.84728e-05
6.46275e-06
-7.04466e-05
-1.31706e-05
-5.06317e-05
-2.47505e-05
-3.77674e-05
-1.76555e-05
1.97494e-05
-1.2441e-07
-3.00277e-05
8.95572e-05
-8.12903e-05
-2.35223e-05
-2.91003e-05
5.88088e-06
-2.49401e-05
9.16119e-05
-6.48479e-05
-6.37736e-05
-3.9896e-05
-0.000158804
-4.53948e-05
-0.000110868
-5.71665e-05
-7.77751e-05
-7.66087e-05
-3.48831e-05
-7.1236e-05
1.65232e-05
-3.71285e-05
2.29233e-05
-2.26159e-05
2.38234e-05
-1.54509e-05
1.92719e-05
-1.22369e-05
1.66201e-05
-9.97313e-06
1.45028e-05
-7.8778e-06
1.23986e-05
1.07795e-05
-6.18554e-06
-2.32629e-05
9.91836e-05
-3.16184e-05
1.48183e-05
-3.45748e-05
-1.02143e-05
-2.28633e-05
-3.64619e-05
-2.51948e-05
-1.53239e-05
-1.4384e-05
-1.09352e-05
-5.90898e-06
8.10821e-05
-1.13059e-05
-1.81255e-05
7.30435e-06
-1.27294e-05
1.12963e-05
8.76201e-05
5.28579e-06
-5.77632e-05
-1.42198e-05
-0.000139299
-5.37464e-05
-7.13419e-05
-6.61753e-05
-6.53463e-05
-8.1537e-05
-1.95213e-05
-6.15621e-05
-3.45176e-06
-4.13172e-05
2.67849e-06
-2.52986e-05
7.80488e-06
-1.70411e-05
1.10144e-05
-1.21106e-05
1.16895e-05
-9.01103e-06
1.14033e-05
-6.95262e-06
1.03404e-05
9.18107e-06
-5.35393e-06
-1.59074e-05
0.000115091
-2.24368e-05
2.13476e-05
-1.71818e-05
-1.54694e-05
-1.90949e-05
-3.45489e-05
-1.93569e-05
-1.50621e-05
-1.4667e-05
-1.56253e-05
1.42704e-05
5.21446e-05
4.07236e-06
-7.92746e-06
8.63724e-06
-1.72941e-05
6.90354e-05
2.72217e-05
4.4374e-05
-3.31017e-05
-1.65259e-05
-7.83987e-05
-2.66057e-05
-6.12623e-05
-4.96814e-05
-4.22706e-05
-4.32919e-05
-2.59109e-05
-3.48754e-05
-1.18682e-05
-2.80251e-05
-4.17177e-06
-2.24491e-05
2.2289e-06
-1.70882e-05
5.65338e-06
-1.24659e-05
7.0672e-06
-9.55824e-06
8.49574e-06
-7.69569e-06
8.47807e-06
7.43607e-06
-5.95046e-06
3.8494e-05
7.65973e-05
3.51755e-05
2.46662e-05
2.85487e-05
-8.84297e-06
1.15554e-05
-1.75553e-05
5.44864e-06
-8.95554e-06
-4.09423e-06
-6.08233e-06
3.30524e-05
1.49978e-05
2.88999e-05
-3.77531e-06
1.8902e-05
-7.29616e-06
4.98593e-05
-3.73528e-06
4.15836e-05
-2.48264e-05
6.9838e-06
-4.37992e-05
-1.54228e-05
-3.88556e-05
-2.59712e-05
-3.17222e-05
-2.8533e-05
-2.33491e-05
-2.49544e-05
-1.54469e-05
-2.31195e-05
-6.00675e-06
-1.89699e-05
-1.92083e-06
-1.54049e-05
2.08823e-06
-1.25383e-05
4.20062e-06
-9.73554e-06
5.69311e-06
-7.8153e-06
6.55801e-06
5.94672e-06
-6.32589e-06
3.6009e-05
4.05882e-05
3.86386e-05
2.20361e-05
2.77559e-05
2.03956e-06
1.53566e-05
-5.15604e-06
1.10116e-05
-4.61093e-06
8.22789e-06
-3.29852e-06
2.08585e-05
2.36681e-06
2.22376e-05
-5.15467e-06
2.17802e-05
-6.83858e-06
2.69276e-05
-8.88308e-06
2.16362e-05
-1.95353e-05
4.87264e-06
-2.70357e-05
-6.67424e-06
-2.73086e-05
-1.53129e-05
-2.30835e-05
-1.96201e-05
-1.9042e-05
-1.98902e-05
-1.51768e-05
-1.75763e-05
-8.32087e-06
-1.63021e-05
-3.19525e-06
-1.34496e-05
-7.64337e-07
-1.14339e-05
2.18493e-06
-9.43379e-06
3.69313e-06
-7.46129e-06
4.58552e-06
4.91682e-06
-6.43146e-06
1.75789e-05
2.30092e-05
2.37825e-05
1.58323e-05
1.96102e-05
6.21177e-06
1.45799e-05
-1.26102e-07
1.19192e-05
-1.95023e-06
1.00539e-05
-1.4334e-06
1.23617e-05
5.90467e-08
1.27387e-05
-5.53162e-06
1.38566e-05
-7.95699e-06
1.49048e-05
-9.93137e-06
1.12519e-05
-1.58823e-05
5.3011e-06
-2.10849e-05
-1.80731e-06
-2.02003e-05
-7.78546e-06
-1.71055e-05
-1.07991e-05
-1.60284e-05
-1.37946e-05
-1.21815e-05
-1.36648e-05
-8.45086e-06
-1.29089e-05
-3.95132e-06
-1.17574e-05
-1.9158e-06
-1.01052e-05
5.32686e-07
-8.61153e-06
2.19947e-06
-7.14082e-06
3.11471e-06
3.79543e-06
-6.01956e-06
8.90664e-06
1.41025e-05
1.38061e-05
1.09328e-05
1.40492e-05
5.96883e-06
1.1983e-05
1.94005e-06
1.03117e-05
-2.78991e-07
9.78082e-06
-9.02927e-07
1.28556e-05
-3.01601e-06
1.29503e-05
-5.62659e-06
1.12793e-05
-6.28608e-06
9.13378e-06
-7.78577e-06
7.37931e-06
-1.41278e-05
2.82816e-06
-1.6534e-05
-5.29196e-07
-1.68431e-05
-4.64984e-06
-1.29848e-05
-9.1624e-06
-1.15158e-05
-1.18732e-05
-9.47077e-06
-1.09668e-05
-9.3574e-06
-9.98157e-06
-4.9367e-06
-1.01278e-05
-1.76966e-06
-8.89104e-06
-7.04066e-07
-7.72983e-06
1.03817e-06
-6.75358e-06
2.13835e-06
2.84856e-06
-5.80681e-06
5.06366e-06
9.03876e-06
8.50053e-06
7.49595e-06
9.62813e-06
4.84062e-06
9.36623e-06
2.20169e-06
9.06592e-06
2.14355e-08
9.68726e-06
-1.5246e-06
1.01293e-05
-3.45827e-06
9.7175e-06
-5.21469e-06
8.77978e-06
-5.34843e-06
7.40176e-06
-6.40802e-06
5.04128e-06
-1.17676e-05
1.62685e-06
-1.31196e-05
-1.64173e-06
-1.35744e-05
-3.46111e-06
-1.11653e-05
-6.55369e-06
-8.42324e-06
-7.21774e-06
-8.80683e-06
-1.03195e-05
-6.25576e-06
-8.43137e-06
-6.82489e-06
-8.12531e-06
-2.07576e-06
-8.02021e-06
-8.09209e-07
-6.98063e-06
-1.48558e-09
-6.22416e-06
1.38181e-06
1.99391e-06
-5.36953e-06
3.01283e-06
6.02554e-06
5.27234e-06
5.2363e-06
6.37272e-06
3.74004e-06
6.71569e-06
1.8583e-06
7.2191e-06
-4.82226e-07
7.7736e-06
-2.0791e-06
7.71839e-06
-3.40324e-06
7.51614e-06
-5.01252e-06
6.98541e-06
-4.81799e-06
6.10942e-06
-5.53233e-06
3.22719e-06
-8.8854e-06
7.45433e-07
-1.06377e-05
-2.11736e-06
-1.07115e-05
-3.04027e-06
-1.02423e-05
-4.52187e-06
-6.94171e-06
-5.87443e-06
-7.45437e-06
-7.35386e-06
-4.77639e-06
-8.33059e-06
-5.84816e-06
-6.93935e-06
-3.46699e-06
-6.74067e-06
-1.00788e-06
-6.24301e-06
-4.99143e-07
-5.53613e-06
6.74957e-07
1.49121e-06
-5.03339e-06
1.79949e-06
4.2259e-06
3.3526e-06
3.68259e-06
4.58064e-06
2.51214e-06
5.48636e-06
9.52579e-07
6.1001e-06
-1.0961e-06
6.15467e-06
-2.13395e-06
6.06919e-06
-3.31818e-06
5.77424e-06
-4.71777e-06
5.4755e-06
-4.51939e-06
5.05797e-06
-5.11487e-06
2.00097e-06
-5.82835e-06
-9.5976e-09
-8.62707e-06
-1.74374e-06
-8.97732e-06
-3.40432e-06
-8.58185e-06
-3.09335e-06
-7.25276e-06
-5.1656e-06
-5.38216e-06
-4.70086e-06
-5.2411e-06
-6.82461e-06
-3.72433e-06
-5.95005e-06
-4.34145e-06
-5.66066e-06
-1.29717e-06
-5.69327e-06
-4.66434e-07
-5.04542e-06
2.71928e-08
9.99629e-07
-4.55379e-06
1.32114e-06
2.90505e-06
2.53394e-06
2.46955e-06
3.53594e-06
1.51019e-06
4.52314e-06
-3.5087e-08
4.92114e-06
-1.49431e-06
4.99214e-06
-2.2052e-06
4.72169e-06
-3.04798e-06
4.20259e-06
-4.19871e-06
3.80668e-06
-4.12346e-06
3.04747e-06
-4.35567e-06
1.77866e-06
-4.55956e-06
3.48408e-08
-6.88331e-06
-1.57603e-06
-7.36653e-06
-2.71781e-06
-7.44013e-06
-3.10777e-06
-6.86282e-06
-4.04363e-06
-4.44625e-06
-4.48298e-06
-4.80163e-06
-5.10984e-06
-3.09733e-06
-5.63009e-06
-3.82106e-06
-4.97832e-06
-1.94879e-06
-4.8049e-06
-6.39718e-07
-4.54586e-06
-2.31746e-07
5.58531e-07
-4.10472e-06
1.06328e-06
1.84167e-06
2.09296e-06
1.43982e-06
3.0617e-06
5.41284e-07
3.67802e-06
-6.51964e-07
3.88407e-06
-1.70039e-06
3.78854e-06
-2.1096e-06
3.69114e-06
-2.95056e-06
3.08887e-06
-3.59642e-06
2.71347e-06
-3.74809e-06
1.91013e-06
-3.55242e-06
1.3122e-06
-3.96174e-06
1.308e-07
-5.70197e-06
-1.47164e-06
-5.76411e-06
-2.29812e-06
-6.61362e-06
-3.13626e-06
-6.02461e-06
-2.81348e-06
-4.76891e-06
-4.05731e-06
-3.55766e-06
-3.86958e-06
-3.2849e-06
-4.84539e-06
-2.84508e-06
-4.19478e-06
-2.59926e-06
-4.09566e-06
-7.3871e-07
-4.13009e-06
-1.9724e-07
1.8706e-07
-3.75858e-06
8.923e-07
9.49175e-07
1.84787e-06
4.84278e-07
2.42782e-06
-3.87857e-08
2.82967e-06
-1.05402e-06
2.86508e-06
-1.73566e-06
2.8065e-06
-2.05082e-06
2.62913e-06
-2.77316e-06
2.07664e-06
-3.04401e-06
1.5626e-06
-3.23415e-06
1.32332e-06
-3.3132e-06
8.7666e-07
-3.51506e-06
-7.22341e-08
-4.75301e-06
-8.23907e-07
-5.01233e-06
-1.7567e-06
-5.68071e-06
-2.61639e-06
-5.16482e-06
-2.6711e-06
-4.7141e-06
-3.2387e-06
-2.98996e-06
-3.07502e-06
-3.44847e-06
-3.90895e-06
-2.01103e-06
-3.91664e-06
-2.59146e-06
-3.71698e-06
-9.38295e-07
-3.54176e-06
-3.72416e-07
-4.00639e-08
-3.31461e-06
7.30577e-07
2.18574e-07
1.22578e-06
-1.09798e-08
1.78434e-06
-5.97347e-07
1.97548e-06
-1.24514e-06
1.98307e-06
-1.74315e-06
1.9849e-06
-2.05259e-06
1.62877e-06
-2.41708e-06
1.33781e-06
-2.75312e-06
1.02142e-06
-2.91776e-06
9.98159e-07
-3.28983e-06
6.31112e-07
-3.14783e-06
-1.52121e-07
-3.96958e-06
-6.11193e-07
-4.55312e-06
-1.45404e-06
-4.83778e-06
-2.08414e-06
-4.53468e-06
-2.60246e-06
-4.19575e-06
-2.33348e-06
-3.2589e-06
-2.87909e-06
-2.9028e-06
-3.07906e-06
-1.811e-06
-3.51414e-06
-2.15633e-06
-3.05871e-06
-1.39369e-06
-3.00436e-06
-4.26755e-07
-2.67138e-08
-3.01769e-06
4.78636e-07
-2.60181e-07
9.51827e-07
-4.84299e-07
1.29142e-06
-9.36878e-07
1.38136e-06
-1.33503e-06
1.34138e-06
-1.70318e-06
1.45139e-06
-2.16261e-06
1.20164e-06
-2.16733e-06
9.69087e-07
-2.5205e-06
7.65486e-07
-2.71398e-06
7.02958e-07
-3.22706e-06
4.68518e-07
-2.91316e-06
-1.48025e-07
-3.35288e-06
-6.03703e-07
-4.09737e-06
-1.21035e-06
-4.23113e-06
-1.71353e-06
-4.03152e-06
-2.12307e-06
-3.78622e-06
-2.1184e-06
-3.26356e-06
-2.4994e-06
-2.52177e-06
-2.27612e-06
-2.03426e-06
-2.96476e-06
-1.46768e-06
-2.71376e-06
-1.6447e-06
-2.67956e-06
-4.6096e-07
-1.39928e-07
-2.56633e-06
3.86133e-07
-6.46576e-07
7.48465e-07
-8.4662e-07
9.29602e-07
-1.1179e-06
1.00976e-06
-1.41514e-06
9.71694e-07
-1.66512e-06
1.02274e-06
-2.21363e-06
9.19524e-07
-2.06403e-06
7.43731e-07
-2.34455e-06
6.22025e-07
-2.59206e-06
4.6538e-07
-3.07021e-06
3.47702e-07
-2.79535e-06
-9.31753e-08
-2.91196e-06
-5.52225e-07
-3.63835e-06
-1.00315e-06
-3.78025e-06
-1.38687e-06
-3.64784e-06
-1.7612e-06
-3.41189e-06
-1.96319e-06
-3.06154e-06
-1.99523e-06
-2.4897e-06
-2.00932e-06
-2.02016e-06
-2.35938e-06
-1.11762e-06
-2.40671e-06
-1.59738e-06
-2.3315e-06
-5.36176e-07
-2.50001e-07
-2.22142e-06
3.05041e-07
-9.51759e-07
5.3497e-07
-1.07635e-06
6.92437e-07
-1.27524e-06
7.92315e-07
-1.51497e-06
7.22888e-07
-1.59568e-06
7.14782e-07
-2.20549e-06
6.74048e-07
-2.02321e-06
5.62881e-07
-2.23327e-06
5.36228e-07
-2.56531e-06
3.07104e-07
-2.84104e-06
2.73301e-07
-2.76157e-06
-2.13431e-08
-2.61739e-06
-4.68728e-07
-3.19104e-06
-8.26139e-07
-3.42288e-06
-1.13695e-06
-3.33702e-06
-1.41128e-06
-3.13751e-06
-1.62381e-06
-2.84895e-06
-1.65042e-06
-2.46305e-06
-1.86357e-06
-1.807e-06
-1.89334e-06
-1.08785e-06
-2.0616e-06
-1.42913e-06
-1.85889e-06
-7.38896e-07
-2.46248e-07
-1.86264e-06
2.18606e-07
-1.17028e-06
3.9635e-07
-1.25389e-06
5.12107e-07
-1.39094e-06
5.60877e-07
-1.56373e-06
6.23028e-07
-1.65785e-06
5.43583e-07
-2.12605e-06
5.19776e-07
-1.99941e-06
4.61783e-07
-2.17529e-06
4.31197e-07
-2.53478e-06
2.06925e-07
-2.61687e-06
2.00967e-07
-2.75574e-06
2.69157e-08
-2.44344e-06
-3.79756e-07
-2.78441e-06
-6.71501e-07
-3.13111e-06
-9.25284e-07
-3.08316e-06
-1.15179e-06
-2.91091e-06
-1.33324e-06
-2.6674e-06
-1.44919e-06
-2.34704e-06
-1.56875e-06
-1.68741e-06
-1.4007e-06
-1.2559e-06
-1.683e-06
-1.14683e-06
-1.54911e-06
-8.72774e-07
-2.42442e-07