/*--------------------------------*- C++ -*----------------------------------*\
| =========                 |                                                 |
| \\      /  F ield         | foam-extend: Open Source CFD                    |
|  \\    /   O peration     | Version:     4.1                                |
|   \\  /    A nd           | Web:         http://www.foam-extend.org         |
|    \\/     M anipulation  |                                                 |
\*---------------------------------------------------------------------------*/
FoamFile
{
    version     2.0;
    format      ascii;
    class       volScalarField;
    location    "0.05";
    object      psi;
}
// * * * * * * * * * * * * * * * * * * * * * * * * * * * * * * * * * * * * * //

dimensions      [1 -1 -2 0 0 0 0];

internalField   nonuniform List<scalar> 
2268
(
3.63795e-12
2.63754e-11
2.27374e-11
-2.63755e-11
-4.54726e-12
-7.84818e-10
-2.48416e-07
-6.59855e-05
-0.0127399
-1.47345
-87.4093
-2021.35
2831.55
1164.26
404.594
78.3613
7.50858
0.277358
0.00414035
3.33378e-05
1.68945e-07
5.29274e-10
-1.00046e-11
1.6371e-11
2.00089e-11
1.00044e-11
3.63799e-11
2.00091e-11
-6.12934e-10
-2.1081e-07
-5.75462e-05
-0.0118456
-1.48572
-103.154
-2281.08
2852.34
1054.49
202.387
35.568
2.7846
0.0753756
0.00102053
8.14351e-06
4.52038e-08
1.62785e-10
-2.0009e-11
-4.54753e-12
1.36424e-11
6.36646e-12
-6.36656e-12
-6.36631e-12
-5.07447e-10
-1.67878e-07
-4.64736e-05
-0.0100035
-1.16955
-79.8257
-1844.99
2796.15
423.784
49.7226
5.14651
0.281302
0.00608867
8.25359e-05
7.31786e-07
5.0838e-09
3.45591e-11
7.09346e-19
1.00045e-11
-6.36652e-12
6.36648e-12
2.0009e-11
-3.09229e-11
-1.90973e-10
-6.5305e-08
-1.82457e-05
-0.00455815
-0.779151
-82.954
-2518.78
2855.37
1112.29
110.72
4.73654
0.0580263
0.000972143
1.45042e-05
1.71934e-07
1.54154e-09
2.18274e-11
1.18235e-11
-8.18553e-12
6.36648e-12
-3.63801e-12
-3.00134e-11
3.63816e-12
-2.96466e-10
-9.62841e-08
-2.21286e-05
-0.00431259
-0.633976
-57.4108
-2252.48
2797.77
313.426
8.92351
0.757686
0.00954014
0.00022558
4.27439e-06
6.63972e-08
7.25756e-10
1.18232e-11
-2.0009e-11
2.63755e-11
1.00045e-11
1.6371e-11
-1.00044e-11
-1.45519e-11
-4.09228e-10
-1.46473e-07
-3.44485e-05
-0.00492421
-0.598658
-39.4522
-1646.22
2805.86
108.045
3.6632
0.172641
0.00432812
0.000101191
2.03198e-06
3.15979e-08
3.87435e-10
1.18233e-11
6.3665e-12
-2.1828e-11
-1.6371e-11
-6.36647e-12
-2.00089e-11
2.63756e-11
-3.31021e-10
-1.13831e-07
-2.51462e-05
-0.00521013
-0.63108
-56.8414
-2018.04
2786.79
435.914
10.6193
0.111644
0.00287641
6.14035e-05
1.10341e-06
1.51218e-08
2.02813e-10
2.27374e-11
4.5475e-12
3.63802e-12
-1.00044e-11
-1.63709e-11
-6.36642e-12
-3.00134e-11
-2.17345e-10
-7.78802e-08
-1.98196e-05
-0.00352379
-0.489253
-39.1505
-1579.82
2146.14
90.2909
2.80318
0.0805554
0.00176354
3.73479e-05
5.98635e-07
8.00882e-09
9.54944e-11
-5.85116e-17
-2.00089e-11
1.81899e-12
-5.43052e-18
-1.6371e-11
-2.27374e-11
4.54747e-12
5.27507e-11
8.18545e-12
-1.6371e-11
-3.63799e-12
-1.00045e-11
1.00045e-11
-3.63803e-12
1.45519e-11
3.27419e-11
-1.00045e-11
1.81899e-11
2.63754e-11
2.27374e-11
-2.64086e-17
1.81903e-12
6.36647e-12
1.6371e-11
-1.36424e-11
6.36649e-12
3.27419e-11
1.00045e-11
1.00045e-11
1.18236e-11
1.63709e-11
-6.36652e-12
2.45564e-11
2.00089e-11
-1.36425e-11
-1.00044e-11
-1.89289e-17
2.18279e-11
-3.63803e-12
1.4552e-11
-3.00134e-11
8.18549e-12
6.36647e-12
-2.00089e-11
-1.36425e-11
-1.6371e-11
-2.27375e-11
4.54747e-12
-6.27554e-11
2.00089e-11
6.36645e-12
2.00089e-11
1.81899e-12
-6.36647e-12
-1.36425e-11
-6.36649e-12
-6.36651e-12
-9.83642e-18
-3.63799e-11
1.81905e-12
-1.00045e-11
-6.36651e-12
-1.00045e-11
-3.63794e-12
1.9998e-17
1.4552e-11
1.819e-11
-3.63794e-12
8.18544e-12
2.27374e-11
-4.28739e-17
-1.6371e-11
4.54749e-12
4.54753e-12
8.18552e-12
1.81902e-12
1.819e-11
3.63804e-12
-6.36651e-12
6.36647e-12
1.36425e-11
2.18279e-11
-2.27375e-11
-1.75122e-17
1.81896e-12
-1.36425e-11
2.0009e-11
6.36645e-12
1.63709e-11
1.00045e-11
-3.63794e-12
6.36649e-12
-1.6371e-11
-2.63754e-11
-1.6371e-11
-1.36425e-11
-6.36652e-12
1.63709e-11
2.18279e-11
8.18541e-12
1.00044e-11
2.0009e-11
1.63709e-11
1.4552e-11
-1.00044e-11
-2.0009e-11
8.18551e-12
-1.6371e-11
-2.63754e-11
-2.27374e-11
-6.36648e-12
1.18235e-11
8.18548e-12
1.4552e-11
2.63754e-11
2.63754e-11
6.36644e-12
2.81944e-11
2.81944e-11
1.63709e-11
6.36644e-12
2.63754e-11
4.54747e-12
-6.36646e-12
1.36425e-11
-2.00089e-11
-1.36425e-11
8.1855e-12
-6.36643e-12
-6.36649e-12
-6.36651e-12
2.45564e-11
-6.36651e-12
2.45564e-11
2.00089e-11
1.00044e-11
6.36643e-12
6.36645e-12
3.09229e-11
1.81898e-12
-3.63802e-12
-3.63799e-12
-1.36425e-11
2.18279e-11
-1.63709e-11
2.27375e-11
1.45519e-11
-1.36424e-11
1.4552e-11
6.3665e-12
1.18234e-11
-6.36645e-12
1.81896e-12
1.18234e-11
-1.81899e-12
6.67767e-18
-3.63796e-12
-2.18279e-11
1.00046e-11
-2.98285e-10
-9.36118e-08
-2.28939e-05
-0.00424954
-0.578736
-55.7067
-2161.08
2418.03
170.494
3.83575
0.0563244
0.000995656
1.72188e-05
2.54159e-07
3.01217e-09
5.45688e-11
3.63796e-12
8.18546e-12
-8.18546e-12
-3.63797e-12
-2.18279e-11
3.63799e-12
3.63809e-12
-3.34663e-10
-9.9752e-08
-2.533e-05
-0.00392673
-0.434086
-33.7513
-1736.81
2287.79
90.895
1.69249
0.0330259
0.00053317
7.30522e-06
8.94947e-08
9.77679e-10
6.36615e-12
4.54747e-12
3.63798e-11
3.63799e-12
-6.36647e-12
-1.00044e-11
6.36648e-12
-8.18541e-12
-1.58237e-10
-5.02461e-08
-1.41107e-05
-0.00296053
-0.426034
-40.3379
-1662.69
2785.05
242.76
8.06666
0.133444
0.00144225
1.24079e-05
9.45445e-08
7.10286e-10
6.36625e-12
-1.00045e-11
2.27374e-11
-1.18234e-11
-6.36645e-12
-3.45608e-11
-2.00089e-11
-1.36424e-11
-4.09212e-11
-1.95812e-08
-6.44204e-06
-0.00158987
-0.285945
-33.0017
-1568.82
2824.89
332.594
13.836
0.283462
0.00326589
2.54556e-05
1.65793e-07
9.81294e-10
1.00041e-11
3.45608e-11
-2.00089e-11
1.00045e-11
-2.45564e-11
-2.18279e-11
-2.63754e-11
1.47675e-17
-1.81794e-12
-3.31017e-09
-1.26213e-06
-0.000415424
-0.108027
-17.7899
-1234.68
2668.7
224.515
7.10463
0.129801
0.0016561
1.68593e-05
1.29651e-07
8.96722e-10
3.45605e-11
6.36645e-12
1.36424e-11
-5.06118e-19
1.72292e-17
-6.36646e-12
-6.36646e-12
-6.36645e-12
-2.45563e-11
-3.47358e-10
-2.19399e-07
-0.000114569
-0.0382942
-7.73903
-817.199
2740.83
179.201
5.19608
0.0923262
0.00114098
1.22707e-05
1.21564e-07
1.03406e-09
4.00175e-11
-1.36424e-11
-3.63798e-12
-8.18545e-12
-2.45564e-11
-1.81899e-11
3.63801e-12
-3.09229e-11
3.63802e-12
-3.27324e-11
-3.02069e-08
-2.07837e-05
-0.0104717
-3.11297
-836.621
2663.52
190.98
5.56339
0.160088
0.00344557
5.38195e-05
7.0975e-07
7.52039e-09
5.72958e-11
-2.00089e-11
3.63798e-12
-1.81899e-11
-4.45653e-11
2.27374e-11
-3.45608e-11
-8.18542e-12
-4.09273e-11
-4.00054e-11
-3.6746e-08
-3.91931e-05
-0.0236401
-7.11018
-878.046
2568.84
148.636
7.1072
0.267561
0.00795691
0.000180861
2.79921e-06
3.53157e-08
3.64696e-10
-1.6371e-11
1.36424e-11
-1.00044e-11
-1.45519e-11
-4.54747e-12
-2.27374e-11
-1.45519e-11
-2.81933e-11
-3.2751e-09
-2.909e-06
-0.00142802
-0.368685
-46.4699
-1914.76
2758.96
372.545
25.3863
1.50644
0.0542365
0.00128451
2.27371e-05
2.97712e-07
2.98851e-09
3.81979e-11
-1.49285e-17
-8.18545e-12
-2.81944e-11
-6.36645e-12
-1.45519e-11
1.68079e-17
-1.81868e-11
-9.95051e-09
-6.76521e-06
-0.00279733
-0.608508
-62.834
-2034.91
2810.51
520.555
55.2562
4.03587
0.154996
0.00361687
6.27093e-05
8.09175e-07
7.98876e-09
6.63907e-11
1.81897e-12
-4.54739e-12
-3.63788e-12
-3.00133e-11
-2.63753e-11
-6.36638e-12
-4.81951e-11
-2.54174e-08
-1.25386e-05
-0.00525545
-1.28671
-130.959
-2645.48
2773.19
1298.98
114.884
8.72147
0.351685
0.00794428
0.000120469
1.42917e-06
1.32609e-08
7.09365e-11
-2.22493e-17
-2.68292e-10
-2.68292e-10
-3.00124e-10
-2.83753e-10
-2.3555e-10
-8.23945e-10
-1.39569e-07
-3.3214e-05
-0.00577094
-0.756653
-66.2211
-2278.4
2519.56
286.831
24.6735
2.37495
0.0813648
0.0016889
2.94434e-05
3.59458e-07
3.1522e-09
2.45554e-11
8.18546e-12
-2.94021e-08
-2.99296e-08
-3.07472e-08
-3.06099e-08
-2.82607e-08
-4.95617e-08
-2.56552e-06
-0.000377615
-0.0501048
-5.61511
-335.185
-2773.36
2775.97
462.532
37.5377
1.85729
0.0448922
0.000735172
8.85669e-06
7.75953e-08
5.25664e-10
2.81942e-11
1.45519e-11
-3.0345e-06
-3.07297e-06
-3.16689e-06
-3.2378e-06
-3.10784e-06
-4.52123e-06
-2.24406e-05
-0.00105123
-0.0845178
-6.03303
-326.714
-2853.12
2669.26
841.558
71.4027
2.59064
0.0465333
0.000512823
3.74952e-06
1.79785e-08
6.91157e-11
6.36645e-12
1.81898e-12
-0.000271456
-0.000282575
-0.000290666
-0.000296674
-0.000296392
-0.000622065
-0.00189351
-0.00364994
-0.103972
-3.57675
-188.718
-2614.49
1943.28
1632.74
248.256
21.1728
0.781457
0.0112514
8.0316e-05
3.07008e-07
6.3928e-10
-4.63845e-11
4.5475e-12
-0.0214406
-0.0224541
-0.0236683
-0.0235197
-0.0266377
-0.094975
-0.206956
-0.114693
-0.599691
-9.83204
-235.183
-2819.07
2819.7
1130.23
123.988
8.28461
0.262698
0.00368365
2.34426e-05
8.53688e-08
1.60045e-10
-2.63754e-11
-1.36424e-11
-1.37854
-1.45163
-1.65512
-1.64156
-2.22958
-12.6883
-13.0479
-4.34627
-16.7849
-87.408
-842.266
-2782.53
2852.65
266.305
6.18246
0.687871
0.0168099
0.000151313
4.55825e-07
1.25585e-09
3.00129e-11
2.18279e-11
6.36648e-12
-65.0519
-70.1921
-93.4432
-102.538
-181.07
-729.369
-460.758
-184.158
-359.074
-960.137
-2839.4
1810.52
2857.48
733.88
39.5733
0.969924
0.013938
5.92704e-06
1.30514e-08
2.27325e-11
8.18544e-12
6.36647e-12
-1.36424e-11
-1568.59
-1815.23
-2345.89
-2766.2
-2772.34
-1938.8
-2811.8
-2738.37
-2558.11
-2410.42
2394.12
1889.15
1960.66
434.485
154.701
29.4228
0.811929
0.00183705
1.88699e-06
1.36275e-09
1.0004e-11
-7.11744e-18
1.27063e-18
2220.73
2783.52
2856.19
2567.57
2445.97
2528.97
2715.78
2830.81
2530.27
2854.4
2475.36
530.272
521.405
18.0204
1.82002
2.48401
0.113228
0.000198594
1.49838e-07
1.05455e-10
4.54743e-12
6.36648e-12
-6.90772e-18
1296.94
888.523
524.826
272.545
194.245
295.436
921.927
650.144
234.038
526.775
352.088
77.1072
6.4115
0.299614
0.0687416
0.0601406
0.00368986
6.82333e-06
4.42072e-09
2.18265e-11
2.27374e-11
-3.27419e-11
1.66787e-17
212.851
112.365
52.2842
19.7865
14.9685
17.2909
73.4281
38.1082
8.67916
29.1349
9.57283
4.65965
0.272412
0.00838409
0.00100635
4.99465e-05
4.26187e-06
4.57851e-08
5.91017e-11
2.00089e-11
1.36424e-11
1.81899e-11
-1.63709e-11
25.253
11.5665
3.70626
1.35106
0.729085
0.487977
2.0065
0.65171
0.0519357
0.276502
0.0141477
0.118268
0.00763945
8.5573e-05
4.6498e-06
2.1987e-07
3.81487e-09
6.274e-11
2.63753e-11
-3.638e-12
2.00089e-11
8.18544e-12
1.45519e-11
1.64846
0.720914
0.187695
0.0536546
0.0160612
0.00645745
0.012197
0.000224542
3.96661e-06
1.58993e-06
3.35472e-05
0.000758959
3.98708e-05
2.69524e-07
1.94635e-08
6.99329e-10
2.8193e-11
4.54744e-12
3.81988e-11
-6.36649e-12
1.63709e-11
1.18234e-11
1.81899e-12
0.0576332
0.0278519
0.00661372
0.00162842
0.000293073
5.40015e-05
1.34868e-05
1.91878e-07
4.39249e-09
2.03854e-09
9.67357e-08
2.27507e-06
1.13966e-07
9.36663e-10
3.00071e-11
-1.36427e-11
2.63754e-11
1.45519e-11
-2.27374e-11
2.00089e-11
1.81899e-11
1.45519e-11
-1.00045e-11
0.00127321
0.000703199
0.000168465
3.80166e-05
4.682e-06
5.06855e-07
2.27476e-08
7.22074e-10
4.09257e-11
-3.63866e-12
1.33665e-10
3.5045e-09
1.28203e-10
1.45516e-11
2.18279e-11
1.00044e-11
2.81944e-11
3.63798e-11
1.81899e-11
-7.61826e-18
-1.00045e-11
1.81899e-11
2.00089e-11
2.00205e-05
1.24236e-05
3.00088e-06
6.63082e-07
6.50964e-08
5.2076e-09
1.21864e-10
2.27371e-11
6.36645e-12
-6.36649e-12
2.63753e-11
1.81888e-11
-1.36425e-11
1.36424e-11
2.27374e-11
-1.00045e-11
-1.00045e-11
8.18546e-12
8.18546e-12
-3.638e-12
2.18279e-11
1.81898e-12
-1.00045e-11
2.37695e-07
1.61644e-07
3.95048e-08
8.49538e-09
7.32121e-10
4.27445e-11
8.18541e-12
1.36424e-11
1.45519e-11
2.00089e-11
-1.00045e-11
1.18234e-11
1.00045e-11
1.00044e-11
1.00044e-11
-6.36647e-12
-2.27374e-11
-2.27374e-11
-3.63798e-12
3.09229e-11
2.27374e-11
3.63797e-12
1.33855e-17
2.2291e-09
1.62704e-09
3.99256e-10
8.73088e-11
2.81941e-11
-6.3665e-12
-1.00045e-11
6.36646e-12
1.81899e-11
3.00133e-11
1.45519e-11
-1.00045e-11
1.81899e-12
1.81898e-12
-1.01753e-17
1.45519e-11
2.63754e-11
1.00045e-11
-1.36424e-11
-9.03595e-18
-1.00045e-11
1.45519e-11
-1.00045e-11
2.00082e-11
2.81939e-11
1.45518e-11
3.09228e-11
3.63798e-11
2.00089e-11
-2.00089e-11
8.18546e-12
1.81896e-12
4.91128e-11
1.18234e-11
-2.27374e-11
-5.54611e-18
1.63709e-11
6.36646e-12
8.18546e-12
-2.63754e-11
-1.63709e-11
-1.63709e-11
2.18279e-11
-2.27374e-11
1.36424e-11
3.45608e-11
1.81898e-12
-1.42243e-17
1.45519e-11
-1.00045e-11
-1.00045e-11
6.36647e-12
-1.00045e-11
8.18546e-12
2.27374e-11
-1.00045e-11
2.27374e-11
2.81944e-11
2.27374e-11
1.63709e-11
2.18279e-11
1.81897e-12
2.81944e-11
-1.63709e-11
2.27374e-11
-2.44579e-17
2.81944e-11
-1.36425e-11
1.81901e-12
1.36424e-11
1.81899e-12
-3.638e-12
1.18234e-11
1.36424e-11
6.36646e-12
2.45564e-11
-1.36425e-11
2.63754e-11
8.18545e-12
2.00089e-11
2.00089e-11
2.00089e-11
1.81898e-12
1.81898e-12
6.36648e-12
-1.36424e-11
-6.36646e-12
-2.27374e-11
6.36647e-12
1.18234e-11
4.54748e-12
-2.00089e-11
-2.27374e-11
-6.36647e-12
2.18279e-11
8.18545e-12
-3.63799e-12
3.63797e-12
-3.638e-12
1.18234e-11
2.18279e-11
-6.36648e-12
8.18546e-12
2.00089e-11
-2.27374e-11
-3.63798e-12
6.36648e-12
-1.00045e-11
8.18546e-12
1.63709e-11
4.00178e-11
1.63709e-11
1.45519e-11
1.18234e-11
-3.00134e-11
-6.36645e-12
-1.63709e-11
4.54747e-12
-3.63799e-12
-6.36648e-12
2.81944e-11
4.54746e-12
8.18546e-12
-2.00089e-11
6.36648e-12
-1.00045e-11
1.81899e-12
-3.63798e-12
1.81899e-11
-1.00045e-11
-1.00044e-11
1.81899e-11
1.45519e-11
4.54747e-12
-3.638e-12
8.18545e-12
1.819e-12
-2.27374e-11
-2.27374e-11
-2.63754e-11
2.63754e-11
2.45564e-11
1.63709e-11
-2.89971e-17
3.00133e-11
2.18279e-11
2.81944e-11
6.36646e-12
-1.63709e-11
1.00045e-11
-1.00045e-11
-1.00044e-11
-6.36646e-12
-2.27374e-11
-3.63798e-11
-1.00044e-11
-6.36648e-12
1.81899e-11
2.18279e-11
-2.63754e-11
8.18548e-12
6.36648e-12
1.81899e-12
8.18544e-12
2.81943e-11
2.63754e-11
2.00089e-11
2.00089e-11
3.09228e-11
-1.00045e-11
2.27374e-11
1.18234e-11
8.18545e-12
1.36424e-11
-1.63709e-11
2.18279e-11
-3.63799e-12
2.27374e-11
8.18545e-12
2.27374e-11
-2.13523e-17
6.36646e-12
-1.00044e-11
1.81899e-12
-3.63799e-12
8.18547e-12
1.45519e-11
2.18279e-11
2.18279e-11
8.18545e-12
-1.36424e-11
1.81899e-11
2.00089e-11
8.18544e-12
1.00045e-11
-6.36648e-12
1.18234e-11
4.54748e-12
6.36646e-12
4.54746e-12
3.09229e-11
8.18544e-12
-2.27374e-11
2.18279e-11
1.81899e-11
-1.63709e-11
-3.63799e-12
2.27374e-11
-2.27374e-11
6.36647e-12
8.18544e-12
1.63709e-11
4.54748e-12
-6.36648e-12
3.63798e-12
1.81899e-11
3.09228e-11
-2.00089e-11
-3.63798e-12
1.81899e-11
1.18234e-11
-6.36649e-12
2.18279e-11
-1.00045e-11
5.09318e-11
2.18279e-11
1.18234e-11
1.36424e-11
-6.36647e-12
1.81898e-12
2.18279e-11
-5.96187e-19
6.36646e-12
2.27374e-11
2.00089e-11
-3.63801e-12
2.18279e-11
-1.00045e-11
8.18544e-12
3.63798e-11
-3.63799e-12
-3.638e-12
1.81899e-11
-1.00045e-11
2.63754e-11
-3.63799e-12
6.36648e-12
-2.27374e-11
8.18546e-12
6.36645e-12
2.81944e-11
1.36424e-11
8.18547e-12
1.63709e-11
-3.63799e-12
1.45519e-11
-3.63799e-12
-3.27419e-11
3.00134e-11
8.18544e-12
8.18546e-12
2.45564e-11
3.45608e-11
1.36424e-11
3.09228e-11
3.09228e-11
6.36646e-12
-1.00045e-11
-1.63709e-11
-1.16831e-17
3.00134e-11
1.81897e-12
1.63709e-11
1.36424e-11
6.36647e-12
-2.63754e-11
-6.36648e-12
4.54748e-12
1.81899e-11
2.81944e-11
2.63754e-11
1.45519e-11
3.63798e-12
-1.00045e-11
1.63709e-11
1.36424e-11
-1.00045e-11
1.18234e-11
1.18234e-11
1.45519e-11
1.45519e-11
-1.00045e-11
1.81899e-11
1.36424e-11
2.00089e-11
3.63796e-12
2.63754e-11
6.36646e-12
-1.36424e-11
1.36424e-11
-3.63799e-12
1.36424e-11
-2.27374e-11
6.36647e-12
6.36646e-12
-6.36647e-12
3.03671e-18
6.36646e-12
1.00044e-11
1.45519e-11
8.18546e-12
-2.27374e-11
1.819e-12
-1.00045e-11
-1.63709e-11
-3.63798e-12
6.36646e-12
1.18234e-11
3.63798e-12
-1.36424e-11
1.819e-12
-1.00045e-11
-3.63798e-12
-1.00045e-11
1.00045e-11
-1.00045e-11
6.36645e-12
-2.79839e-17
1.36424e-11
1.63709e-11
1.36424e-11
1.18235e-11
-6.36651e-12
8.18549e-12
1.36424e-11
2.45565e-11
-3.2742e-11
-3.63795e-12
2.00089e-11
1.81895e-12
4.54753e-12
-1.6371e-11
1.81898e-12
3.63802e-12
-3.00134e-11
1.18235e-11
1.18234e-11
2.27374e-11
4.54749e-12
-1.36425e-11
8.18544e-12
1.36425e-11
-2.27375e-11
1.36425e-11
-3.63803e-12
2.45565e-11
-3.63799e-11
4.5475e-12
1.18234e-11
2.0009e-11
-4.00179e-11
4.54756e-12
-6.36648e-12
1.81901e-12
-1.00044e-11
-1.00044e-11
-2.00089e-11
-6.36645e-12
-6.36646e-12
-3.63797e-12
-6.36651e-12
1.00045e-11
-1.6371e-11
4.5475e-12
1.00045e-11
1.4552e-11
-2.27375e-11
1.00045e-11
-5.01809e-17
3.00134e-11
-2.0009e-11
1.819e-11
4.54748e-12
1.6371e-11
-2.63755e-11
2.45565e-11
-2.00089e-11
4.54752e-12
-3.63797e-12
-1.36425e-11
-2.27374e-11
4.54753e-12
-6.36648e-12
-6.36647e-12
6.36648e-12
3.638e-12
-1.6371e-11
3.63801e-12
1.18234e-11
1.819e-11
-2.27375e-11
-1.00044e-11
-3.63804e-12
4.00179e-11
1.63709e-11
2.63754e-11
-2.00089e-11
6.36652e-12
-2.0009e-11
-3.63797e-12
-2.0009e-11
1.4552e-11
-2.63755e-11
6.3665e-12
-2.0009e-11
1.819e-11
-1.00045e-11
2.45564e-11
2.27374e-11
1.819e-11
-3.2742e-11
1.18235e-11
-6.36656e-12
3.45609e-11
-2.27375e-11
-6.36645e-12
4.54747e-12
2.45564e-11
-6.36651e-12
4.54751e-12
-2.00089e-11
1.81903e-12
-2.0009e-11
1.4552e-11
6.36642e-12
4.91129e-11
-3.63803e-12
-1.00045e-11
1.36424e-11
8.18547e-12
-1.63709e-11
-1.00044e-11
-3.63799e-11
3.63807e-12
-2.63754e-11
6.36651e-12
-3.63796e-12
-8.86935e-18
4.54749e-12
4.5475e-12
6.36649e-12
1.81899e-11
-3.63802e-12
8.18548e-12
-1.00045e-11
2.27375e-11
-4.00179e-11
-6.36645e-12
-6.36654e-12
3.27419e-11
-1.6371e-11
-1.36424e-11
1.18235e-11
6.36649e-12
-2.63754e-11
4.54753e-12
1.45519e-11
1.81899e-11
-1.00045e-11
-3.63797e-12
3.00134e-11
3.27419e-11
6.36646e-12
-6.36649e-12
-3.638e-12
4.12659e-17
-3.27419e-11
8.18553e-12
-3.00134e-11
-3.63793e-12
-1.00045e-11
2.27374e-11
1.819e-11
-1.36425e-11
-1.36424e-11
-1.00044e-11
1.6371e-11
-3.63803e-12
1.36425e-11
-3.03153e-17
3.63798e-11
1.18234e-11
-2.27374e-11
8.18546e-12
1.81899e-12
-3.63798e-12
-4.55978e-18
1.45519e-11
3.63798e-12
-1.63709e-11
-1.36424e-11
1.18234e-11
-2.00089e-11
-3.00134e-11
-2.27374e-11
-1.00044e-11
-2.63754e-11
-3.63798e-12
3.63799e-12
8.18545e-12
-6.36647e-12
-1.63709e-11
-1.00044e-11
-1.00045e-11
-3.63799e-12
1.00045e-11
6.36646e-12
-3.63797e-12
-1.63709e-11
-6.36647e-12
2.45564e-11
-2.27374e-11
2.00089e-11
-1.63709e-11
-1.36424e-11
1.45519e-11
-3.63798e-12
-2.27374e-11
-6.36648e-12
-1.63709e-11
8.18547e-12
-1.36424e-11
1.36424e-11
2.63754e-11
-6.36648e-12
4.54749e-12
-2.27374e-11
1.49104e-17
-1.05699e-18
-1.00045e-11
4.54749e-12
-3.638e-12
1.36424e-11
6.36646e-12
2.81944e-11
4.54746e-12
6.36647e-12
1.00045e-11
-2.27374e-11
7.135e-18
-3.63799e-12
3.63798e-12
-1.00044e-11
-2.00089e-11
-1.36424e-11
-6.36646e-12
-1.36424e-11
1.81899e-11
-2.27374e-11
-3.63798e-12
1.45519e-11
3.63797e-12
2.18279e-11
-1.00045e-11
2.45564e-11
-1.02635e-17
4.54749e-12
2.45243e-17
-1.00045e-11
5.09318e-11
-1.21044e-17
-2.27374e-11
1.45519e-11
-7.08795e-18
3.63798e-12
-3.63798e-12
2.00089e-11
-1.63709e-11
-1.36424e-11
2.18279e-11
-9.75741e-18
3.63797e-12
8.18545e-12
1.00044e-11
6.36647e-12
-1.00044e-11
-5.27507e-11
-1.36424e-11
2.63754e-11
1.36424e-11
-3.63798e-12
-3.63799e-12
2.18279e-11
8.18545e-12
-3.63798e-12
-6.36648e-12
1.18234e-11
1.00045e-11
-1.01247e-17
8.18546e-12
1.45519e-11
3.09229e-11
-2.00089e-11
-6.36647e-12
1.18235e-11
-2.00089e-11
1.05837e-17
1.00045e-11
-1.63709e-11
2.18279e-11
8.18545e-12
-1.52777e-17
8.18546e-12
4.54747e-12
8.18545e-12
1.00044e-11
-6.36647e-12
-3.63798e-12
1.81898e-12
1.81898e-12
1.18234e-11
-3.63798e-11
1.11392e-17
-1.55075e-17
-1.36424e-11
-1.36424e-11
-1.36424e-11
1.18234e-11
1.18234e-11
8.18545e-12
1.45519e-11
-1.52329e-17
1.18234e-11
3.00134e-11
1.81899e-11
-1.00044e-11
-1.00045e-11
2.18279e-11
-1.03129e-17
3.00133e-11
1.00045e-11
-2.99195e-18
3.45609e-11
-2.00089e-11
6.36648e-12
1.36424e-11
-1.61246e-18
3.63798e-12
1.18234e-11
-2.10309e-17
2.00089e-11
1.45519e-11
-2.00089e-11
-6.36647e-12
-2.00089e-11
1.45519e-11
3.00133e-11
-1.00045e-11
2.18279e-11
-2.27374e-11
1.819e-12
-2.00089e-11
1.40818e-17
-5.10823e-18
8.18546e-12
-2.00089e-11
-1.36424e-11
-1.36424e-11
2.81944e-11
1.18234e-11
6.36646e-12
-6.67594e-18
2.81944e-11
2.27374e-11
-1.63709e-11
6.36646e-12
-6.36646e-12
-1.36424e-11
-2.63754e-11
-1.63709e-11
-2.00089e-11
-1.00044e-11
3.63797e-12
2.27374e-11
-1.63709e-11
2.27374e-11
-1.36424e-11
1.36424e-11
-6.36648e-12
3.63797e-12
1.36424e-11
-3.638e-12
2.00089e-11
-6.36648e-12
1.18234e-11
-1.63709e-11
6.36648e-12
3.638e-12
-3.63798e-11
-1.36424e-11
-1.36424e-11
1.45519e-11
-2.00089e-11
1.45519e-11
1.00044e-11
-1.00045e-11
1.36424e-11
1.63709e-11
1.45519e-11
8.18545e-12
1.36424e-11
3.00133e-11
8.18546e-12
-3.638e-12
3.63798e-12
-1.00045e-11
1.819e-12
1.18235e-11
1.00045e-11
6.36648e-12
1.00045e-11
8.18547e-12
1.63709e-11
-4.32668e-18
-3.63798e-12
3.63797e-12
2.27374e-11
1.36424e-11
-6.36648e-12
1.18234e-11
1.81898e-12
1.81898e-12
3.00134e-11
2.45564e-11
1.63709e-11
-3.00133e-11
-1.36424e-11
8.18547e-12
-2.00089e-11
-2.27374e-11
-1.63709e-11
1.18234e-11
-6.36648e-12
-3.63798e-12
6.36645e-12
3.09228e-11
2.63754e-11
1.45519e-11
8.18546e-12
6.36647e-12
1.63709e-11
-2.00089e-11
3.63799e-12
-2.63754e-11
-3.27418e-11
1.18234e-11
-4.27463e-11
-2.27374e-11
1.81901e-12
-2.00089e-11
1.00044e-11
3.27418e-11
-1.63709e-11
3.45608e-11
-2.27374e-11
-4.56769e-19
-3.63799e-12
-1.36424e-11
-6.36648e-12
1.18234e-11
1.18234e-11
-2.00089e-11
1.00045e-11
1.819e-12
1.36424e-11
8.18547e-12
-1.63709e-11
1.18234e-11
1.81899e-12
1.00045e-11
3.63797e-12
1.81899e-12
6.36645e-12
1.00045e-11
-3.63799e-12
1.81899e-11
-4.18896e-19
2.00089e-11
-2.00089e-11
2.00089e-11
1.63709e-11
1.00045e-11
-2.00089e-11
8.18545e-12
4.9284e-18
-1.36424e-11
-3.638e-12
3.63799e-12
-2.27374e-11
-6.36646e-12
-3.63798e-12
1.36424e-11
2.45564e-11
1.45519e-11
-1.36424e-11
-1.63709e-11
-9.11013e-18
1.63709e-11
-1.00045e-11
8.18545e-12
-1.00045e-11
-2.27374e-11
3.27418e-11
1.81899e-12
4.54747e-12
4.27463e-11
1.81897e-12
1.00045e-11
-6.36646e-12
-2.00089e-11
-3.63798e-12
-2.27374e-11
3.63798e-12
3.63798e-12
-6.36647e-12
1.00044e-11
2.18279e-11
1.18234e-11
2.18279e-11
2.63754e-11
1.81898e-12
1.36424e-11
3.63798e-12
1.81899e-12
-6.36649e-12
1.00045e-11
-2.63754e-11
-1.00044e-11
8.18547e-12
1.81899e-12
-3.63798e-12
3.63797e-12
1.18234e-11
1.36424e-11
3.63797e-12
-3.63799e-12
8.18546e-12
1.00044e-11
8.18545e-12
1.36424e-11
1.36424e-11
1.819e-12
1.81899e-12
-2.76127e-18
3.63797e-12
1.819e-12
-3.63798e-12
3.63798e-12
1.00044e-11
2.18279e-11
1.45519e-11
8.18545e-12
1.45519e-11
1.45519e-11
-1.63709e-11
-6.57953e-18
1.63709e-11
-8.83698e-18
6.36647e-12
4.54747e-12
-1.36424e-11
1.81899e-12
1.18234e-11
1.45519e-11
-6.36647e-12
1.81899e-12
-2.76127e-18
3.63797e-12
1.18234e-11
2.63754e-11
1.18234e-11
6.36646e-12
2.00089e-11
1.81898e-12
1.36424e-11
-1.38511e-17
1.81899e-12
-1.00045e-11
1.36424e-11
-2.19117e-19
1.18234e-11
-3.00134e-11
1.36424e-11
-2.00089e-11
3.63799e-12
1.81899e-12
8.18546e-12
1.00045e-11
-1.97902e-17
3.45608e-11
-3.63799e-12
-1.36424e-11
1.18234e-11
-9.06766e-18
1.63709e-11
1.45519e-11
-6.36647e-12
-1.36424e-11
8.18546e-12
3.63797e-12
1.36424e-11
8.18545e-12
8.18547e-12
-1.63709e-11
1.00045e-11
-1.00045e-11
-1.00044e-11
1.81899e-12
2.45564e-11
8.18545e-12
1.36424e-11
8.18545e-12
-6.36648e-12
1.81899e-11
1.00044e-11
-3.63693e-18
6.36647e-12
-1.02383e-17
-2.28384e-19
-1.36424e-11
1.45519e-11
1.36424e-11
-1.00045e-11
1.00045e-11
1.819e-12
-1.36424e-11
1.81899e-12
-2.00089e-11
1.81899e-12
1.36424e-11
8.18545e-12
1.36424e-11
-1.05837e-17
-3.63799e-12
4.54747e-12
1.36424e-11
-3.63799e-12
8.18546e-12
1.36424e-11
1.45519e-11
3.63798e-12
8.18547e-12
-1.63709e-11
6.44526e-18
-1.36424e-11
2.00089e-11
-2.63754e-11
-6.36647e-12
-1.40347e-17
1.81899e-11
-3.638e-12
8.18546e-12
-3.13082e-18
8.18546e-12
8.18545e-12
-3.63797e-12
-6.36647e-12
-3.63798e-12
-1.00045e-11
-1.36424e-11
8.18547e-12
-1.63709e-11
1.819e-12
1.36424e-11
-1.06285e-17
-1.36424e-11
1.00045e-11
2.27374e-11
2.18279e-11
8.18546e-12
1.00044e-11
6.7184e-18
-1.63709e-11
1.61246e-18
-1.36424e-11
1.79609e-18
-4.37373e-18
2.18279e-11
-3.63799e-12
-3.63799e-12
-2.00089e-11
-1.00045e-11
-4.27962e-18
1.45519e-11
1.00045e-11
-3.63798e-12
-6.36648e-12
3.63799e-12
-6.36648e-12
8.18546e-12
-1.63709e-11
-3.63797e-12
-3.22033e-18
-1.36424e-11
1.18235e-11
1.51606e-18
6.36647e-12
1.81899e-11
3.27418e-11
1.36424e-11
6.36647e-12
-3.638e-12
1.18234e-11
-1.63709e-11
-6.36648e-12
1.63709e-11
-2.00089e-11
2.76127e-18
1.45519e-11
-1.63709e-11
-6.36647e-12
1.36424e-11
-3.63797e-12
-1.00045e-11
-2.00089e-11
-2.00089e-11
-3.63799e-12
3.63798e-11
1.36424e-11
1.45519e-11
3.45608e-11
-1.36698e-17
1.81899e-12
2.18279e-11
1.18234e-11
1.18234e-11
1.81898e-12
6.36647e-12
-1.00045e-11
1.18235e-11
2.18279e-11
1.81899e-12
1.00045e-11
6.36646e-12
2.27374e-11
-1.63709e-11
-1.36424e-11
-1.00045e-11
2.00089e-11
6.36645e-12
3.63798e-12
1.81899e-12
3.63797e-12
3.63797e-12
3.63797e-12
6.36646e-12
5.61206e-18
3.63799e-12
-2.63754e-11
1.18234e-11
1.45519e-11
-1.00045e-11
2.27374e-11
1.36424e-11
1.81899e-12
-6.36647e-12
-2.27374e-11
-2.00089e-11
1.8879e-18
8.18546e-12
1.00044e-11
-9.22719e-19
1.00044e-11
1.45519e-11
2.63754e-11
-3.27418e-11
-6.36645e-12
-2.00089e-11
6.36647e-12
-2.27374e-11
-2.27374e-11
3.81988e-11
3.63796e-12
1.00044e-11
2.63754e-11
1.81899e-12
4.54748e-12
-3.63798e-12
8.18546e-12
6.36647e-12
-1.63709e-11
2.00089e-11
8.18545e-12
1.18234e-11
-1.63709e-11
-2.27374e-11
-1.36424e-11
1.18234e-11
4.54748e-12
5.10364e-18
2.27374e-11
1.36424e-11
-1.00045e-11
-1.49058e-17
-3.63798e-12
1.81899e-11
-2.00089e-11
-1.63709e-11
-1.00045e-11
2.27374e-11
8.18545e-12
-6.36647e-12
-1.36424e-11
1.45519e-11
2.81944e-11
1.81899e-12
-6.36648e-12
2.45564e-11
-1.63709e-11
4.54747e-12
1.81898e-12
-3.63799e-12
3.27419e-11
-1.00045e-11
-3.77121e-18
-3.63798e-12
-1.00045e-11
2.18279e-11
2.81944e-11
1.00044e-11
1.00044e-11
2.00089e-11
3.63798e-11
6.36644e-12
-6.36648e-12
2.27374e-11
-1.36424e-11
1.00045e-11
1.00044e-11
1.45519e-11
-3.63798e-12
-3.63798e-11
1.00045e-11
4.54747e-12
8.18546e-12
-3.63799e-12
2.00089e-11
-6.36649e-12
1.36424e-11
-3.63799e-12
8.18545e-12
1.36424e-11
3.45608e-11
-1.00045e-11
-1.36424e-11
-1.0095e-18
1.36424e-11
1.81899e-11
1.81898e-12
-3.63798e-12
1.45519e-11
-2.27374e-11
1.63709e-11
3.63797e-12
1.00045e-11
-1.36425e-11
1.36424e-11
8.18546e-12
-1.36425e-11
2.45564e-11
1.18234e-11
1.81897e-12
1.81899e-11
3.63798e-12
3.97099e-18
-1.36424e-11
1.00044e-11
-3.63799e-12
-3.63797e-12
3.63797e-12
-1.00045e-11
1.36424e-11
-3.63799e-12
1.00044e-11
1.18234e-11
-1.00045e-11
-1.61246e-18
2.63754e-11
-3.638e-12
-3.63799e-12
3.63799e-12
-3.00134e-11
6.36649e-12
1.819e-12
-3.63799e-12
1.00044e-11
1.819e-12
-2.27374e-11
3.63798e-11
1.18234e-11
3.45608e-11
-1.00045e-11
1.00044e-11
-3.638e-12
1.45519e-11
-1.63709e-11
-1.63709e-11
1.00045e-11
4.04894e-18
-1.00044e-11
-3.27418e-11
-4.00178e-11
-2.00089e-11
1.36424e-11
8.18545e-12
-2.00089e-11
1.81899e-11
1.00044e-11
1.81899e-12
-1.15937e-17
-1.00045e-11
1.36424e-11
1.36424e-11
3.63797e-12
1.36424e-11
-1.00044e-11
-1.00045e-11
-1.00045e-11
1.81899e-12
-1.00044e-11
2.18279e-11
4.46953e-18
-1.00045e-11
2.00089e-11
-3.24788e-19
1.81898e-12
6.36647e-12
-1.36424e-11
1.00045e-11
1.36424e-11
-3.63799e-12
1.18234e-11
-1.00045e-11
3.00133e-11
-1.00044e-11
2.76127e-18
4.54748e-12
1.45519e-11
-4.27463e-11
4.54748e-12
-1.36424e-11
1.00045e-11
3.63797e-12
3.63798e-12
4.54747e-12
1.63709e-11
-1.00045e-11
-3.638e-12
1.00045e-11
3.63797e-12
1.36424e-11
1.18234e-11
3.09229e-11
-3.27419e-11
4.54749e-12
8.18546e-12
1.00044e-11
-3.27418e-11
-3.63797e-12
1.81899e-11
-6.36648e-12
8.18546e-12
-6.36647e-12
8.18546e-12
8.18545e-12
2.18279e-11
3.63798e-11
-2.00089e-11
1.45519e-11
1.36424e-11
2.81944e-11
-3.638e-12
1.81899e-11
-1.63709e-11
-6.36647e-12
2.63754e-11
-1.00044e-11
-1.36424e-11
)
;

boundaryField
{
    leftWall
    {
        type            zeroGradient;
    }
    rightWall
    {
        type            zeroGradient;
    }
    lowerWall
    {
        type            zeroGradient;
    }
    atmosphere
    {
        type            zeroGradient;
    }
    defaultFaces
    {
        type            empty;
    }
}


// ************************************************************************* //
