/*--------------------------------*- C++ -*----------------------------------*\
| =========                 |                                                 |
| \\      /  F ield         | foam-extend: Open Source CFD                    |
|  \\    /   O peration     | Version:     4.1                                |
|   \\  /    A nd           | Web:         http://www.foam-extend.org         |
|    \\/     M anipulation  |                                                 |
\*---------------------------------------------------------------------------*/
FoamFile
{
    version     2.0;
    format      ascii;
    class       volVectorField;
    location    "0.05";
    object      U;
}
// * * * * * * * * * * * * * * * * * * * * * * * * * * * * * * * * * * * * * //

dimensions      [0 1 -1 0 0 0 0];

internalField   nonuniform List<vector> 
2268
(
(0.00194464 -0.000759994 0)
(0.00592094 -0.00076328 0)
(0.0101465 -0.000755514 0)
(0.014257 -0.000726874 0)
(0.0179285 -0.000583408 0)
(0.0190973 -0.000382363 0)
(0.0163235 0.000666417 0)
(0.00994947 0.00136095 0)
(-0.00556689 0.00375442 0)
(-0.041433 0.00758082 0)
(-0.060104 0.00903732 0)
(-0.0532009 -0.000810072 0)
(-0.0762045 -0.0153947 0)
(0.12115 -0.11103 0)
(0.433692 -0.0466754 0)
(0.661645 0.000149864 0)
(0.422531 0.0310432 0)
(0.173938 0.025604 0)
(0.124109 0.0098661 0)
(0.0800773 0.00537017 0)
(0.0491641 0.00434942 0)
(0.0319844 0.00581581 0)
(0.0114254 0.0056684 0)
(0.00194486 -0.00227103 0)
(0.00592775 -0.0022928 0)
(0.0101702 -0.00226832 0)
(0.0143455 -0.00220863 0)
(0.0180978 -0.00175613 0)
(0.0196904 -0.00108321 0)
(0.0171387 0.00159328 0)
(0.0113566 0.00375391 0)
(-0.00282641 0.0116607 0)
(-0.0389354 0.0208928 0)
(-0.0692826 0.0343942 0)
(-0.0861503 0.00923243 0)
(-0.0808998 -0.0943791 0)
(0.239243 -0.197688 0)
(0.470518 -0.0639723 0)
(0.511208 0.0233075 0)
(0.241327 0.083531 0)
(0.148123 0.0573557 0)
(0.117526 0.0255689 0)
(0.0792885 0.0145944 0)
(0.0503431 0.0134837 0)
(0.0331358 0.0180601 0)
(0.0115455 0.0172929 0)
(0.00193609 -0.00375868 0)
(0.00592598 -0.00382983 0)
(0.0101917 -0.00378289 0)
(0.014506 -0.00374017 0)
(0.0184666 -0.0029609 0)
(0.0206839 -0.00177926 0)
(0.0186028 0.00180169 0)
(0.0147131 0.00581271 0)
(0.00224432 0.0184964 0)
(-0.030036 0.0331775 0)
(-0.059286 0.0632351 0)
(-0.0674733 0.04184 0)
(-0.156477 -0.206701 0)
(0.191993 -0.257935 0)
(0.193559 -0.0731762 0)
(0.215829 0.0987106 0)
(0.117444 0.117594 0)
(0.12016 0.0687902 0)
(0.105615 0.0364403 0)
(0.0760508 0.0213743 0)
(0.0517935 0.0228397 0)
(0.034342 0.0279285 0)
(0.0112615 0.0290667 0)
(0.00191104 -0.00526838 0)
(0.00591456 -0.00535701 0)
(0.0102077 -0.00528237 0)
(0.0147254 -0.00524787 0)
(0.0190105 -0.00427198 0)
(0.0219182 -0.00271596 0)
(0.0206865 0.00120267 0)
(0.0192244 0.00773938 0)
(0.00936731 0.0219252 0)
(-0.0156816 0.0440742 0)
(-0.0646078 0.0830756 0)
(-0.14308 0.0625569 0)
(-0.166412 -0.354711 0)
(0.300321 -0.401972 0)
(0.250834 -0.271207 0)
(0.0752683 0.0763308 0)
(0.0848724 0.115538 0)
(0.102501 0.0669035 0)
(0.0957947 0.0422561 0)
(0.0730624 0.0276706 0)
(0.0535456 0.0319439 0)
(0.0361245 0.0355699 0)
(0.0121179 0.0407437 0)
(0.00189386 -0.00690125 0)
(0.00591724 -0.00685838 0)
(0.0102366 -0.00676137 0)
(0.0149716 -0.00657942 0)
(0.0196434 -0.00572115 0)
(0.0232341 -0.00396128 0)
(0.0234929 0.000253065 0)
(0.0244017 0.0098288 0)
(0.0190745 0.0237597 0)
(0.000290751 0.0537195 0)
(-0.0345002 0.0973748 0)
(-0.115705 0.139888 0)
(-0.101348 -0.445816 0)
(-0.023141 -0.414646 0)
(-0.263773 -0.0688714 0)
(-0.0824178 0.112355 0)
(0.0568572 0.0974549 0)
(0.0865548 0.0644872 0)
(0.0875458 0.0447491 0)
(0.0713392 0.035587 0)
(0.0556257 0.0409067 0)
(0.038512 0.0451079 0)
(0.0137724 0.0548941 0)
(0.00193132 -0.00854239 0)
(0.00597723 -0.00833061 0)
(0.0103312 -0.00827516 0)
(0.0152023 -0.00806488 0)
(0.0202229 -0.0074388 0)
(0.0246971 -0.00549651 0)
(0.0271048 -0.00161691 0)
(0.0300371 0.00998115 0)
(0.0299342 0.0244693 0)
(0.018262 0.0577276 0)
(0.0166483 0.107476 0)
(-0.0012094 0.229828 0)
(0.0013388 -0.441153 0)
(-0.164902 -0.191058 0)
(-0.096303 -0.216308 0)
(-0.0405962 0.0602259 0)
(0.0558566 0.0678974 0)
(0.0795955 0.0592624 0)
(0.0821501 0.0472919 0)
(0.071378 0.0438119 0)
(0.0581321 0.0492132 0)
(0.0426835 0.0556599 0)
(0.0169052 0.0771897 0)
(0.00199388 -0.00991317 0)
(0.00603843 -0.0098032 0)
(0.0103523 -0.00985167 0)
(0.0153489 -0.00987163 0)
(0.0208265 -0.00985513 0)
(0.0259239 -0.00759606 0)
(0.0306587 -0.00400624 0)
(0.0363496 0.00760848 0)
(0.0416442 0.0220132 0)
(0.0399523 0.0560894 0)
(0.0513193 0.111545 0)
(0.0940585 0.197075 0)
(0.234719 -0.458923 0)
(0.410193 -0.444041 0)
(0.0746463 -0.195036 0)
(0.0112512 0.0495868 0)
(0.0611522 0.0550234 0)
(0.0786324 0.0534534 0)
(0.0803358 0.051617 0)
(0.0722225 0.0500704 0)
(0.06122 0.056523 0)
(0.0517976 0.0644795 0)
(0.0241428 0.0878844 0)
(0.00198221 -0.0111861 0)
(0.00600096 -0.011387 0)
(0.0102868 -0.0115682 0)
(0.0151791 -0.0116935 0)
(0.0212593 -0.0120346 0)
(0.0273826 -0.0106754 0)
(0.034138 -0.00646336 0)
(0.0420896 0.00373603 0)
(0.0524604 0.0170192 0)
(0.0611839 0.0460074 0)
(0.0871195 0.100238 0)
(0.096414 0.153592 0)
(0.159526 -0.412557 0)
(-0.298763 -0.0829871 0)
(-0.27707 -0.0943209 0)
(0.0285417 0.0175134 0)
(0.0595687 0.0470405 0)
(0.0795664 0.0525499 0)
(0.0808334 0.05546 0)
(0.0736665 0.0567097 0)
(0.0647657 0.0615166 0)
(0.0577726 0.070603 0)
(0.0286537 0.102603 0)
(0.00360544 -0.00207427 0)
(0.0103214 -0.00182409 0)
(0.0157861 -0.000923941 0)
(0.0190718 -0.000431088 0)
(0.020085 -0.000121998 0)
(0.0198962 9.30578e-05 0)
(0.0190767 0.000177117 0)
(0.0179432 0.000271735 0)
(0.0168031 0.000360682 0)
(0.01583 0.000427973 0)
(0.0153382 0.000521105 0)
(0.0150452 0.00067686 0)
(0.0137209 0.000599926 0)
(0.0113879 0.000502687 0)
(0.00902843 0.000436151 0)
(0.00683978 0.000390546 0)
(0.00478973 0.000371532 0)
(0.00284133 0.000356612 0)
(0.000945156 0.000348182 0)
(0.00377798 -0.00637313 0)
(0.0109944 -0.00574108 0)
(0.0166635 -0.00277197 0)
(0.0197664 -0.0012732 0)
(0.0206912 -0.000340729 0)
(0.0204117 0.000300187 0)
(0.0195325 0.000558265 0)
(0.0183865 0.000866707 0)
(0.0172161 0.00111735 0)
(0.0162243 0.00131578 0)
(0.0157498 0.00160176 0)
(0.0153607 0.00200082 0)
(0.0138953 0.0017276 0)
(0.0115262 0.00143481 0)
(0.00914786 0.00124313 0)
(0.00694023 0.00112067 0)
(0.00486551 0.00106025 0)
(0.00288571 0.00101704 0)
(0.000960065 0.000989451 0)
(0.00397087 -0.0109529 0)
(0.0120278 -0.00868547 0)
(0.0179726 -0.0045012 0)
(0.0204627 -0.00200693 0)
(0.0211404 -0.000477027 0)
(0.0206709 0.000541263 0)
(0.0197012 0.00106322 0)
(0.0185501 0.0015576 0)
(0.0173443 0.00194273 0)
(0.0163657 0.0022785 0)
(0.0159384 0.00281238 0)
(0.0153836 0.00321938 0)
(0.0137307 0.00271437 0)
(0.0113919 0.00225534 0)
(0.00906362 0.00196669 0)
(0.00689121 0.00178701 0)
(0.00483676 0.00167827 0)
(0.00286709 0.00160887 0)
(0.000953125 0.00156335 0)
(0.00481746 -0.0160015 0)
(0.0137265 -0.0105197 0)
(0.0195048 -0.00605909 0)
(0.0214803 -0.00253279 0)
(0.0217779 -0.000498675 0)
(0.021071 0.000829039 0)
(0.019968 0.00172537 0)
(0.0187648 0.00234502 0)
(0.0175267 0.00285889 0)
(0.0165976 0.003364 0)
(0.0161528 0.00418612 0)
(0.0153226 0.00426879 0)
(0.0134865 0.00359742 0)
(0.0112103 0.00303523 0)
(0.00895037 0.00267292 0)
(0.00681885 0.00243747 0)
(0.00479066 0.00228028 0)
(0.00283992 0.00218702 0)
(0.000943435 0.00213025 0)
(0.00641437 -0.0220603 0)
(0.016265 -0.0130974 0)
(0.0213617 -0.00748304 0)
(0.0228254 -0.0027971 0)
(0.0225691 -0.000251106 0)
(0.021616 0.00126504 0)
(0.0203455 0.00249657 0)
(0.0190322 0.00324928 0)
(0.0177779 0.00394089 0)
(0.0169299 0.00475443 0)
(0.0163227 0.0055122 0)
(0.0151336 0.00516495 0)
(0.0132052 0.00442529 0)
(0.0109987 0.00379761 0)
(0.00880942 0.00336501 0)
(0.00672424 0.0030733 0)
(0.00473026 0.00287809 0)
(0.00280682 0.00276588 0)
(0.000932507 0.00270117 0)
(0.00883598 -0.0319548 0)
(0.0199457 -0.0162308 0)
(0.0238634 -0.00857164 0)
(0.0245512 -0.00287709 0)
(0.0235037 8.13753e-05 0)
(0.0222382 0.00217648 0)
(0.0208108 0.00350062 0)
(0.019378 0.00437447 0)
(0.018166 0.00548344 0)
(0.0172653 0.00633645 0)
(0.0163275 0.0065212 0)
(0.0148592 0.00596747 0)
(0.0129049 0.0051909 0)
(0.0107594 0.00450288 0)
(0.00864234 0.00401022 0)
(0.00661178 0.00367645 0)
(0.00465993 0.00345674 0)
(0.0027692 0.00333095 0)
(0.000920414 0.00325784 0)
(0.0137465 -0.0414753 0)
(0.0262184 -0.01877 0)
(0.0269818 -0.00927238 0)
(0.0264956 -0.00257275 0)
(0.0247141 0.00123138 0)
(0.023067 0.00366162 0)
(0.0212768 0.00507746 0)
(0.0198723 0.00610135 0)
(0.0186098 0.00699917 0)
(0.01737 0.00745454 0)
(0.0161657 0.00725953 0)
(0.014567 0.00668323 0)
(0.0125823 0.00583525 0)
(0.0104966 0.00510565 0)
(0.00845798 0.00458182 0)
(0.00648888 0.00422828 0)
(0.00458335 0.00399538 0)
(0.0027277 0.00385975 0)
(0.000906869 0.00377813 0)
(0.0240494 -0.0489627 0)
(0.0339839 -0.0196187 0)
(0.0306101 -0.00794268 0)
(0.0289995 -0.00166093 0)
(0.0261379 0.00258726 0)
(0.0238636 0.00480028 0)
(0.0218411 0.00636168 0)
(0.0201907 0.00745265 0)
(0.0187394 0.00787805 0)
(0.0173755 0.00808817 0)
(0.0159992 0.0078868 0)
(0.0142537 0.00722684 0)
(0.0122342 0.00631789 0)
(0.0102266 0.00559674 0)
(0.00826941 0.00507815 0)
(0.00636254 0.00472404 0)
(0.00450332 0.00448673 0)
(0.00268324 0.00434498 0)
(0.000892085 0.00425721 0)
(0.00185022 -0.014251 0)
(0.00576804 -0.0143972 0)
(0.0101398 -0.0147865 0)
(0.0150591 -0.0151021 0)
(0.0212569 -0.0156568 0)
(0.0290619 -0.0156995 0)
(0.0390215 -0.0120577 0)
(0.0499611 -0.00568996 0)
(0.0656583 0.00489312 0)
(0.0895517 0.023403 0)
(0.121391 0.0512323 0)
(0.108521 0.0356796 0)
(0.255121 -0.328691 0)
(0.46557 -0.35829 0)
(0.279838 -0.101926 0)
(0.1056 0.00758326 0)
(0.0908501 0.0454602 0)
(0.0867624 0.0569702 0)
(0.0837386 0.0608855 0)
(0.0759487 0.0647318 0)
(0.0692453 0.06637 0)
(0.0786565 0.072419 0)
(0.10504 0.0947039 0)
(0.00188223 -0.0194551 0)
(0.00553295 -0.0194352 0)
(0.00959853 -0.0196983 0)
(0.0142865 -0.0200642 0)
(0.0205399 -0.0201019 0)
(0.0301437 -0.0208472 0)
(0.0419962 -0.0210747 0)
(0.0555284 -0.0197006 0)
(0.0758447 -0.0125863 0)
(0.0968891 -0.00236142 0)
(0.113347 0.00569015 0)
(0.0661778 -0.0100945 0)
(0.038071 -0.27855 0)
(-0.0985152 -0.0828605 0)
(0.0414976 -0.0341009 0)
(0.104769 0.032131 0)
(0.100829 0.0529156 0)
(0.0950551 0.0616225 0)
(0.0884485 0.0670027 0)
(0.0783408 0.0678549 0)
(0.0712795 0.0679366 0)
(0.0781869 0.0725787 0)
(0.0853329 0.0602869 0)
(0.00187104 -0.0250288 0)
(0.00551333 -0.0249753 0)
(0.00947769 -0.0247531 0)
(0.0145929 -0.0251778 0)
(0.0203447 -0.0259558 0)
(0.0278329 -0.0279021 0)
(0.0397254 -0.0304396 0)
(0.0574453 -0.0314802 0)
(0.0821595 -0.0288422 0)
(0.10734 -0.0254447 0)
(0.132477 -0.0167921 0)
(0.101301 0.00732049 0)
(0.17175 -0.142458 0)
(0.321424 -0.256579 0)
(0.258649 -0.0835656 0)
(0.180641 0.0479073 0)
(0.124124 0.0739036 0)
(0.102797 0.0783147 0)
(0.0907358 0.0747866 0)
(0.0770044 0.0699741 0)
(0.0743265 0.0696691 0)
(0.0703864 0.0643043 0)
(0.0664841 0.0500648 0)
(0.0019369 -0.0299531 0)
(0.00580448 -0.03033 0)
(0.00936712 -0.0309991 0)
(0.0130168 -0.0324064 0)
(0.0176768 -0.0350476 0)
(0.0253962 -0.0373341 0)
(0.0380104 -0.0406585 0)
(0.0563728 -0.0454368 0)
(0.0804386 -0.054145 0)
(0.107412 -0.0631293 0)
(0.155479 -0.0731268 0)
(0.156412 -0.0909967 0)
(0.271557 -0.216999 0)
(0.55163 -0.265995 0)
(0.425485 -0.0174895 0)
(0.200676 0.125651 0)
(0.132437 0.113299 0)
(0.0972291 0.102343 0)
(0.0806939 0.0870615 0)
(0.0734481 0.0752269 0)
(0.0655621 0.0675872 0)
(0.0584853 0.0554214 0)
(0.0588957 0.0498438 0)
(0.0014942 -0.0341994 0)
(0.00445853 -0.0351766 0)
(0.007365 -0.0372002 0)
(0.0104711 -0.0400074 0)
(0.0152902 -0.0433178 0)
(0.0219905 -0.0479579 0)
(0.0311852 -0.0560367 0)
(0.0431291 -0.0678721 0)
(0.0626418 -0.088464 0)
(0.0854804 -0.116064 0)
(0.126216 -0.151054 0)
(0.121845 -0.225245 0)
(0.244743 -0.261518 0)
(0.369627 -0.241056 0)
(0.218319 0.144844 0)
(0.122312 0.18927 0)
(0.0986619 0.137413 0)
(0.0780156 0.109852 0)
(0.06425 0.0914063 0)
(0.0578264 0.0770883 0)
(0.0546995 0.0635897 0)
(0.0526084 0.0569686 0)
(0.0520409 0.0508034 0)
(0.000958905 -0.037673 0)
(0.00278513 -0.0386904 0)
(0.00449243 -0.0407932 0)
(0.00682705 -0.0440675 0)
(0.0095971 -0.0484792 0)
(0.0124141 -0.0561279 0)
(0.0175521 -0.0654176 0)
(0.0228894 -0.0809463 0)
(0.0300958 -0.106097 0)
(0.043288 -0.141263 0)
(0.074808 -0.192383 0)
(0.073004 -0.308735 0)
(0.137576 -0.209514 0)
(0.22257 -0.158252 0)
(0.032159 0.214476 0)
(0.0399805 0.2012 0)
(0.0532397 0.14192 0)
(0.0530359 0.106627 0)
(0.048749 0.0861999 0)
(0.0460325 0.0740313 0)
(0.045553 0.0652372 0)
(0.045777 0.0583936 0)
(0.0450559 0.051213 0)
(0.000477785 -0.0399078 0)
(0.00132408 -0.0407223 0)
(0.00194173 -0.0423342 0)
(0.00270047 -0.0449738 0)
(0.003084 -0.0495517 0)
(0.00476164 -0.0550136 0)
(0.00576819 -0.0628566 0)
(0.00119615 -0.078167 0)
(-0.000358128 -0.100035 0)
(-0.00422049 -0.131119 0)
(-0.0150026 -0.188208 0)
(-0.0312819 -0.305112 0)
(-0.143752 -0.184728 0)
(-0.131211 -0.151567 0)
(-0.176209 0.158183 0)
(-0.0327432 0.169961 0)
(0.00803184 0.126637 0)
(0.0245718 0.0993972 0)
(0.0327688 0.0803409 0)
(0.037233 0.0703957 0)
(0.0392452 0.063012 0)
(0.0385974 0.0567258 0)
(0.038093 0.0503451 0)
(0.000148898 -0.0409176 0)
(0.000356404 -0.0415212 0)
(0.000222898 -0.0426354 0)
(-0.000461341 -0.0443317 0)
(-0.000582828 -0.0469542 0)
(-0.00114934 -0.0506698 0)
(-0.00615752 -0.059321 0)
(-0.0155331 -0.0700693 0)
(-0.0262336 -0.0831145 0)
(-0.049545 -0.107031 0)
(-0.0872228 -0.148242 0)
(-0.0817387 -0.213978 0)
(-0.176348 -0.0461552 0)
(-0.329735 -0.079484 0)
(-0.366056 0.0257632 0)
(-0.0662206 0.0990975 0)
(-0.0131799 0.0889553 0)
(0.00950089 0.0786463 0)
(0.020964 0.0708047 0)
(0.0291696 0.0646448 0)
(0.0320241 0.0585926 0)
(0.0331433 0.0536509 0)
(0.0336131 0.0497485 0)
(-0.000115384 -0.0405453 0)
(-0.000389822 -0.0410711 0)
(-0.000883846 -0.0420332 0)
(-0.00164102 -0.0432615 0)
(-0.00336325 -0.0444901 0)
(-0.00784094 -0.0473561 0)
(-0.0141947 -0.0545537 0)
(-0.0240066 -0.0583001 0)
(-0.0411305 -0.0624146 0)
(-0.0774039 -0.0714406 0)
(-0.129601 -0.0863614 0)
(-0.149177 -0.105216 0)
(-0.268071 -0.0100411 0)
(-0.281661 -0.149444 0)
(-0.231166 -0.162053 0)
(-0.0522267 0.010109 0)
(-0.0100481 0.0442298 0)
(0.00956493 0.052187 0)
(0.0200736 0.0580536 0)
(0.0255244 0.0567821 0)
(0.0284418 0.054609 0)
(0.0298111 0.0521545 0)
(0.0303528 0.0494891 0)
(-0.000370429 -0.0393581 0)
(-0.00112799 -0.0398787 0)
(-0.00198665 -0.0407995 0)
(-0.00292884 -0.0420437 0)
(-0.00475668 -0.0433704 0)
(-0.0114638 -0.0451245 0)
(-0.0176744 -0.0464475 0)
(-0.0248911 -0.0463337 0)
(-0.043507 -0.0418748 0)
(-0.0818438 -0.0301733 0)
(-0.144278 -0.00174977 0)
(-0.196372 0.0703634 0)
(-0.370576 0.0083783 0)
(-0.207972 -0.235972 0)
(-0.153494 -0.286562 0)
(0.00120408 -0.046243 0)
(0.0207028 0.018155 0)
(0.0262394 0.0346893 0)
(0.0269902 0.0467139 0)
(0.0262325 0.0510957 0)
(0.0276055 0.0519058 0)
(0.0281128 0.0513861 0)
(0.0279455 0.0497516 0)
(-0.000627058 -0.0385141 0)
(-0.0018271 -0.0389805 0)
(-0.0030699 -0.0394279 0)
(-0.00427019 -0.0402141 0)
(-0.00654929 -0.0415975 0)
(-0.0111498 -0.0431286 0)
(-0.0159352 -0.0400559 0)
(-0.0208894 -0.0358669 0)
(-0.0295202 -0.0231521 0)
(-0.0512828 0.0119098 0)
(-0.0828294 0.0940518 0)
(-0.178354 0.205777 0)
(-0.193952 -0.330109 0)
(0.317675 -0.347582 0)
(-0.00519931 -0.371542 0)
(-0.00876676 -0.0917815 0)
(0.0378423 0.0140518 0)
(0.0416711 0.0287745 0)
(0.0380353 0.0388034 0)
(0.0312273 0.0470273 0)
(0.0289939 0.0510256 0)
(0.0277203 0.051952 0)
(0.026293 0.0509509 0)
(-0.000831491 -0.0361238 0)
(-0.00204238 -0.0359379 0)
(-0.0032407 -0.0366418 0)
(-0.00516223 -0.0380281 0)
(-0.00780056 -0.0383482 0)
(-0.0101464 -0.0385563 0)
(-0.0109722 -0.0352874 0)
(-0.0095672 -0.0303783 0)
(-0.000816854 -0.0215738 0)
(0.0209795 0.00508989 0)
(0.0827538 0.073332 0)
(0.0681108 0.365912 0)
(-0.0458511 -0.481339 0)
(-0.327131 -0.262816 0)
(-0.293765 -0.316376 0)
(-0.0958084 -0.084426 0)
(0.0151713 -0.00691151 0)
(0.0497444 0.0181944 0)
(0.0472842 0.0353819 0)
(0.039091 0.0472217 0)
(0.032652 0.0532435 0)
(0.0280665 0.0545788 0)
(0.0247081 0.0533069 0)
(-0.000440837 -0.0352999 0)
(-0.00236151 -0.0342092 0)
(-0.00519308 -0.0333513 0)
(-0.00601622 -0.034031 0)
(-0.00715503 -0.0355508 0)
(-0.00826036 -0.0360595 0)
(-0.00811641 -0.0353624 0)
(-0.00838119 -0.0340352 0)
(0.00113256 -0.0335297 0)
(0.0285021 -0.0278384 0)
(0.0927342 0.0157441 0)
(0.118631 0.243925 0)
(0.492297 -0.023513 0)
(0.219409 -0.328107 0)
(0.18585 -0.410565 0)
(0.0264521 -0.211125 0)
(0.121525 -0.0510948 0)
(0.0929523 0.010724 0)
(0.0690308 0.0415138 0)
(0.0496194 0.0547153 0)
(0.0364482 0.0598154 0)
(0.0277998 0.0596098 0)
(0.0223832 0.0569306 0)
(0.000280631 -0.0356892 0)
(-6.45607e-05 -0.0356421 0)
(-0.00307423 -0.0328096 0)
(-0.00739579 -0.030445 0)
(-0.0097811 -0.0326779 0)
(-0.0098713 -0.0357392 0)
(-0.00890482 -0.0401802 0)
(-0.00812509 -0.0496001 0)
(0.0015678 -0.0541027 0)
(0.0351409 -0.0629669 0)
(0.12621 -0.0520581 0)
(0.20928 -0.119037 0)
(0.516427 0.0457698 0)
(0.748201 -0.153536 0)
(0.712969 -0.189481 0)
(0.196273 -0.0583293 0)
(0.203176 -0.00681503 0)
(0.150894 0.0448925 0)
(0.0934862 0.0653343 0)
(0.0577949 0.0707388 0)
(0.0375009 0.0695309 0)
(0.0250969 0.0656348 0)
(0.0182258 0.0604594 0)
(-0.000326326 -0.0309898 0)
(0.000639522 -0.0338178 0)
(0.000127589 -0.0326309 0)
(-0.00575266 -0.0273057 0)
(-0.0122874 -0.0258137 0)
(-0.0155679 -0.0320633 0)
(-0.0217692 -0.0441668 0)
(-0.0220691 -0.0657093 0)
(-0.0124623 -0.0827359 0)
(0.00936061 -0.114072 0)
(0.0896429 -0.148937 0)
(0.10122 -0.311422 0)
(0.146715 -0.226336 0)
(0.578265 -0.259887 0)
(0.972914 -0.269667 0)
(0.606297 -0.0180874 0)
(0.248004 0.182498 0)
(0.176947 0.136251 0)
(0.0966535 0.106397 0)
(0.0541759 0.0923156 0)
(0.0312589 0.0813553 0)
(0.0185803 0.0718598 0)
(0.0121498 0.0638434 0)
(-0.00242771 -0.0272009 0)
(-0.00130551 -0.0316538 0)
(0.00403353 -0.0317357 0)
(8.49248e-06 -0.0201289 0)
(-0.0139872 -0.0163523 0)
(-0.027967 -0.0328702 0)
(-0.0427251 -0.0403486 0)
(-0.0463629 -0.0636533 0)
(-0.0465904 -0.0948755 0)
(-0.0441928 -0.141135 0)
(0.0198877 -0.211086 0)
(-0.00739094 -0.161556 0)
(-0.0715885 -0.542164 0)
(-0.0185594 -0.414708 0)
(0.12595 -0.284202 0)
(0.0249911 0.197968 0)
(0.0479831 0.313704 0)
(0.070261 0.21559 0)
(0.0522451 0.14451 0)
(0.0329359 0.11478 0)
(0.0168322 0.0930984 0)
(0.00740978 0.0778406 0)
(0.00364343 0.0672755 0)
(-0.00389954 -0.0295068 0)
(-0.00199643 -0.0369537 0)
(0.0139136 -0.0295715 0)
(0.0119001 -0.00442209 0)
(-0.0216909 0.011592 0)
(-0.0381904 -0.0419573 0)
(-0.0523341 -0.0302464 0)
(-0.0762905 -0.0547478 0)
(-0.0915666 -0.0790046 0)
(-0.10565 -0.146312 0)
(0.00482936 -0.291761 0)
(0.129697 -0.309637 0)
(0.545833 -0.330936 0)
(0.260127 -0.283905 0)
(0.0683268 -0.0825234 0)
(-0.11639 0.254222 0)
(-0.0156817 0.296083 0)
(-0.00539921 0.228573 0)
(-0.00193621 0.170025 0)
(0.00256883 0.129578 0)
(-0.00597211 0.0993999 0)
(-0.00744574 0.0810845 0)
(-0.00685513 0.0687631 0)
(-0.011688 -0.0157628 0)
(-0.00278068 -0.0535163 0)
(0.0406218 -0.0533327 0)
(0.0476251 0.0427194 0)
(-0.0378972 0.0868528 0)
(-0.0469787 -0.067899 0)
(-0.0498049 0.0102403 0)
(-0.090735 -0.00192183 0)
(-0.138672 0.00574422 0)
(-0.234737 -0.0650138 0)
(-0.410369 -0.480905 0)
(-0.421099 -0.707472 0)
(-0.308259 -0.497638 0)
(0.0478847 -0.32896 0)
(-0.0716899 -0.0909056 0)
(0.0165476 0.253936 0)
(-0.00629653 0.271453 0)
(-0.0567151 0.213569 0)
(-0.0471189 0.1699 0)
(-0.0383377 0.126379 0)
(-0.0320525 0.0980079 0)
(-0.0234515 0.0798852 0)
(-0.0182317 0.067583 0)
(-0.0585779 0.0387497 0)
(-0.0503757 -0.0802756 0)
(0.138829 -0.124661 0)
(0.221169 0.0442746 0)
(0.203364 0.0692188 0)
(0.0465076 -0.0189201 0)
(-0.27127 0.0125471 0)
(-0.123235 -0.112842 0)
(0.00408535 0.13278 0)
(-0.424139 0.0242692 0)
(-0.738751 -0.500769 0)
(-0.370738 -0.379802 0)
(-0.632466 -0.583681 0)
(-0.314353 -0.193385 0)
(-0.410638 -0.180834 0)
(-0.157347 0.0753337 0)
(-0.115074 0.259621 0)
(-0.104745 0.192159 0)
(-0.0884555 0.14067 0)
(-0.0702136 0.106391 0)
(-0.0528094 0.0875337 0)
(-0.0379879 0.0739783 0)
(-0.0286434 0.0634651 0)
(-0.101181 0.117014 0)
(-0.265771 -0.192686 0)
(-0.362348 -0.247145 0)
(-0.376797 0.0855129 0)
(-0.178109 0.031712 0)
(0.147535 0.436679 0)
(-0.0316283 0.131031 0)
(-0.287901 -0.270143 0)
(-0.211862 0.411939 0)
(-0.143703 0.413732 0)
(-0.23182 -0.392608 0)
(-0.246854 -0.731152 0)
(-0.263301 -0.603231 0)
(-0.221706 -0.385783 0)
(-0.511423 -0.220758 0)
(-0.454465 0.147937 0)
(-0.255416 0.223706 0)
(-0.188304 0.143417 0)
(-0.129856 0.10638 0)
(-0.0915826 0.0865853 0)
(-0.0647361 0.075413 0)
(-0.0476092 0.0657943 0)
(-0.0366071 0.0573317 0)
(-0.0724787 0.47711 0)
(-0.182016 -0.087625 0)
(-0.246445 -0.0340248 0)
(-0.165544 -0.0785372 0)
(-0.105087 -0.0729021 0)
(-0.113056 -0.0675082 0)
(-0.00757963 0.523678 0)
(-0.0746424 -0.0509438 0)
(0.0209006 -0.041446 0)
(0.0173193 0.704388 0)
(0.0583754 -0.408233 0)
(-0.0308169 -0.682906 0)
(-0.16107 -0.359933 0)
(-0.521595 -0.687237 0)
(-0.388485 -0.155566 0)
(-0.316859 0.024457 0)
(-0.267838 0.0724087 0)
(-0.22161 0.0799239 0)
(-0.146174 0.0763268 0)
(-0.101765 0.0695845 0)
(-0.0739273 0.0640782 0)
(-0.056299 0.0576909 0)
(-0.0434621 0.0510058 0)
(-0.0672147 0.705898 0)
(-0.146814 0.0618056 0)
(-0.155242 -0.118409 0)
(-0.107071 -0.144159 0)
(-0.168819 -0.0338326 0)
(-0.0903203 0.0708166 0)
(0.00424971 0.511318 0)
(0.0642225 -0.105991 0)
(0.0183004 0.021646 0)
(0.148146 0.480528 0)
(0.262241 -0.481822 0)
(0.00980867 -0.775685 0)
(-0.197825 -0.702401 0)
(-0.182531 -0.275377 0)
(-0.275605 -0.144744 0)
(-0.27526 -0.0688438 0)
(-0.220943 -0.0233938 0)
(-0.180127 0.0306148 0)
(-0.14075 0.0496708 0)
(-0.104181 0.0541081 0)
(-0.0769529 0.0514323 0)
(-0.0608991 0.0490125 0)
(-0.0484913 0.0457538 0)
(0.0336043 0.421194 0)
(0.101814 -0.00700232 0)
(0.0794978 -0.185491 0)
(0.0268252 -0.186075 0)
(-0.0168489 -0.0854336 0)
(-0.0631029 -0.0510931 0)
(0.0419301 0.067218 0)
(0.160546 -0.0854173 0)
(0.112032 -0.0936695 0)
(0.215885 -0.0622445 0)
(0.276194 -0.267837 0)
(0.108699 -0.399447 0)
(-0.0509003 -0.276317 0)
(-0.121563 -0.257264 0)
(-0.164312 -0.18156 0)
(-0.184443 -0.082575 0)
(-0.172585 -0.0314495 0)
(-0.150609 0.00456348 0)
(-0.12265 0.0260035 0)
(-0.0999524 0.0385764 0)
(-0.0790843 0.0409666 0)
(-0.0620094 0.0404835 0)
(-0.0502993 0.0418634 0)
(0.09649 0.134795 0)
(0.160024 0.00172677 0)
(0.114292 -0.0537226 0)
(0.0487185 -0.060688 0)
(0.015742 -0.0287072 0)
(0.0180675 -0.00368542 0)
(0.0688561 0.0706044 0)
(0.1032 0.0132674 0)
(0.0884237 -0.0110983 0)
(0.108694 -0.0272208 0)
(0.114835 -0.164997 0)
(0.0567118 -0.244996 0)
(-0.0180891 -0.238748 0)
(-0.0636827 -0.192075 0)
(-0.0912598 -0.147165 0)
(-0.121957 -0.0878436 0)
(-0.132635 -0.0457681 0)
(-0.121717 -0.0132152 0)
(-0.106487 0.00782634 0)
(-0.0892093 0.0207235 0)
(-0.075048 0.0297145 0)
(-0.0599816 0.0328476 0)
(-0.0489797 0.035415 0)
(0.0469778 0.111035 0)
(0.0870248 0.0415915 0)
(0.0708009 -0.00850321 0)
(0.0387656 -0.0211603 0)
(0.0234963 -0.0114116 0)
(0.0221916 -0.00220061 0)
(0.0505423 0.00623151 0)
(0.0821899 -0.0282745 0)
(0.0715693 -0.0490249 0)
(0.0573612 -0.0711683 0)
(0.0499441 -0.121615 0)
(0.0302789 -0.157906 0)
(0.00267325 -0.162156 0)
(-0.0310265 -0.140437 0)
(-0.0578231 -0.118132 0)
(-0.0802056 -0.0899773 0)
(-0.0968184 -0.0499598 0)
(-0.0965775 -0.0242475 0)
(-0.0884909 -0.00169644 0)
(-0.0779492 0.0101533 0)
(-0.0669513 0.0192775 0)
(-0.0562591 0.0256114 0)
(-0.0465622 0.0275159 0)
(0.01986 0.0576729 0)
(0.0421151 0.0275592 0)
(0.0438931 -0.00145661 0)
(0.0329986 -0.0101644 0)
(0.0263852 -0.00835454 0)
(0.0312023 -0.00399815 0)
(0.0424379 -0.00140965 0)
(0.0482951 -0.0230292 0)
(0.0449018 -0.0503515 0)
(0.0350209 -0.0634991 0)
(0.0280512 -0.0793284 0)
(0.0166118 -0.0917318 0)
(0.000941975 -0.101032 0)
(-0.0183596 -0.10423 0)
(-0.0403565 -0.0909488 0)
(-0.0529986 -0.0764414 0)
(-0.0660116 -0.0477642 0)
(-0.0730626 -0.0244241 0)
(-0.0718897 -0.00808179 0)
(-0.0680855 0.00466296 0)
(-0.0595073 0.0121619 0)
(-0.0516919 0.0182352 0)
(-0.0447638 0.0211307 0)
(0.010091 0.0252285 0)
(0.024052 0.0141217 0)
(0.0302247 0.000148345 0)
(0.028761 -0.00599162 0)
(0.0277489 -0.0066274 0)
(0.0282677 -0.00674789 0)
(0.0308631 -0.0144147 0)
(0.03323 -0.02662 0)
(0.0314902 -0.0390831 0)
(0.0273416 -0.0482182 0)
(0.0209579 -0.0528872 0)
(0.00878383 -0.0597868 0)
(-0.00902765 -0.0644382 0)
(-0.0199508 -0.0720165 0)
(-0.0300473 -0.0669357 0)
(-0.0368643 -0.0569073 0)
(-0.0439931 -0.0443281 0)
(-0.0563192 -0.0256565 0)
(-0.0592612 -0.0124446 0)
(-0.0576012 -0.00139386 0)
(-0.0532849 0.00641268 0)
(-0.0472394 0.011646 0)
(-0.0413474 0.0160502 0)
(0.00628768 0.0102848 0)
(0.0162045 0.00595096 0)
(0.0229947 -0.000456922 0)
(0.0253299 -0.00467121 0)
(0.0250659 -0.00796816 0)
(0.0230614 -0.0123886 0)
(0.0222882 -0.0178171 0)
(0.0236824 -0.0261646 0)
(0.0233356 -0.0340507 0)
(0.0207846 -0.0406632 0)
(0.0161025 -0.0448162 0)
(0.00508195 -0.0480716 0)
(-0.0107996 -0.0500724 0)
(-0.0202723 -0.0498755 0)
(-0.0249103 -0.0514126 0)
(-0.0301365 -0.0410758 0)
(-0.0345156 -0.0381776 0)
(-0.0407175 -0.0266807 0)
(-0.0473879 -0.0141526 0)
(-0.0491486 -0.00503702 0)
(-0.0463926 0.00296958 0)
(-0.0419913 0.00788105 0)
(-0.0375921 0.012187 0)
(0.00479062 0.00376597 0)
(0.013115 0.00174337 0)
(0.0193971 -0.00187944 0)
(0.0209396 -0.00518781 0)
(0.0197177 -0.0096714 0)
(0.018071 -0.0144741 0)
(0.0169575 -0.0186179 0)
(0.016965 -0.0240595 0)
(0.016971 -0.0310124 0)
(0.0163555 -0.0367237 0)
(0.0133086 -0.0398678 0)
(0.00346949 -0.0405635 0)
(-0.0105867 -0.0409256 0)
(-0.0208952 -0.0388863 0)
(-0.0209515 -0.0385026 0)
(-0.0234862 -0.0350056 0)
(-0.029518 -0.0311099 0)
(-0.0321011 -0.0252438 0)
(-0.0373597 -0.016454 0)
(-0.04036 -0.00671885 0)
(-0.0402969 -3.97734e-05 0)
(-0.0379646 0.00509906 0)
(-0.0341065 0.00897575 0)
(0.00381162 0.000641899 0)
(0.0104974 -0.000820644 0)
(0.0159691 -0.00389776 0)
(0.0173467 -0.00820708 0)
(0.0155604 -0.0115144 0)
(0.013895 -0.0149619 0)
(0.0125818 -0.0189703 0)
(0.0112467 -0.0229296 0)
(0.0106348 -0.0283809 0)
(0.011835 -0.0329159 0)
(0.0121849 -0.0353463 0)
(0.00396602 -0.0366109 0)
(-0.00907649 -0.0353885 0)
(-0.0176512 -0.0330398 0)
(-0.0208553 -0.0300057 0)
(-0.0226367 -0.0320345 0)
(-0.0246629 -0.0263355 0)
(-0.0260486 -0.0231326 0)
(-0.0286637 -0.0165835 0)
(-0.0325998 -0.00914034 0)
(-0.0345228 -0.00277489 0)
(-0.0329254 0.0026407 0)
(-0.030246 0.00662191 0)
(0.00308685 -0.00189555 0)
(0.00852006 -0.0031399 0)
(0.011933 -0.00633543 0)
(0.0131857 -0.0106766 0)
(0.0128163 -0.0135768 0)
(0.0104911 -0.0164171 0)
(0.00891287 -0.0196209 0)
(0.00753412 -0.0226548 0)
(0.00696477 -0.0253419 0)
(0.0093675 -0.0270574 0)
(0.00956116 -0.029715 0)
(0.00336363 -0.0328865 0)
(-0.0070049 -0.0329712 0)
(-0.0154267 -0.0298199 0)
(-0.0198443 -0.0269754 0)
(-0.0197551 -0.0252106 0)
(-0.0205162 -0.0224164 0)
(-0.0223112 -0.0196892 0)
(-0.023293 -0.0150701 0)
(-0.0264201 -0.0100643 0)
(-0.0284456 -0.00360111 0)
(-0.0285234 0.00104778 0)
(-0.0270011 0.00465637 0)
(0.00242799 -0.00418053 0)
(0.00600448 -0.00591 0)
(0.00836113 -0.00849123 0)
(0.0100227 -0.0111922 0)
(0.00972849 -0.0142839 0)
(0.00776036 -0.0173632 0)
(0.00628724 -0.0194039 0)
(0.00551137 -0.0214564 0)
(0.00624633 -0.0215858 0)
(0.00748294 -0.023324 0)
(0.00629946 -0.0260106 0)
(0.000628612 -0.0284433 0)
(-0.00601019 -0.0299958 0)
(-0.0116166 -0.0268612 0)
(-0.0161542 -0.0241201 0)
(-0.0180098 -0.02068 0)
(-0.0190984 -0.0203101 0)
(-0.0186525 -0.0168373 0)
(-0.0190119 -0.0141386 0)
(-0.0210245 -0.00991192 0)
(-0.0233353 -0.00509851 0)
(-0.0246341 -0.000479755 0)
(-0.0235629 0.00310067 0)
(0.0012771 -0.00692271 0)
(0.0041772 -0.00825729 0)
(0.00661033 -0.00978001 0)
(0.00734133 -0.0115174 0)
(0.00657749 -0.0142166 0)
(0.00530526 -0.0167468 0)
(0.00478225 -0.0180351 0)
(0.00534858 -0.0183814 0)
(0.0051113 -0.0186127 0)
(0.00494345 -0.020996 0)
(0.00439847 -0.0231999 0)
(-0.000672853 -0.0246285 0)
(-0.00543516 -0.0244527 0)
(-0.00953327 -0.0234393 0)
(-0.0136174 -0.0213218 0)
(-0.0158885 -0.0188041 0)
(-0.0166402 -0.0165126 0)
(-0.0160934 -0.0141482 0)
(-0.0163412 -0.0127131 0)
(-0.0173235 -0.009081 0)
(-0.0189425 -0.0058782 0)
(-0.0202779 -0.00157645 0)
(-0.0203183 0.00189092 0)
(0.00105737 -0.00921411 0)
(0.00314838 -0.00957603 0)
(0.00507969 -0.0106263 0)
(0.00554764 -0.0121823 0)
(0.00444993 -0.0139911 0)
(0.00389662 -0.0154819 0)
(0.00463633 -0.016199 0)
(0.00493829 -0.0163422 0)
(0.00362879 -0.0177291 0)
(0.00287972 -0.0187058 0)
(0.00263975 -0.0210754 0)
(-0.000645477 -0.0219838 0)
(-0.00483791 -0.0208295 0)
(-0.00849114 -0.020525 0)
(-0.0114911 -0.0186277 0)
(-0.0131536 -0.0167155 0)
(-0.0143986 -0.013803 0)
(-0.0148271 -0.0123396 0)
(-0.0139165 -0.0108772 0)
(-0.0141595 -0.00855141 0)
(-0.0157689 -0.00561426 0)
(-0.0168167 -0.00219243 0)
(-0.0173578 0.00121275 0)
(0.000908893 -0.00976054 0)
(0.0027809 -0.0100387 0)
(0.00398457 -0.0109027 0)
(0.00394897 -0.0124581 0)
(0.00324581 -0.0136389 0)
(0.00307277 -0.0144919 0)
(0.00391973 -0.0152385 0)
(0.0038163 -0.0162297 0)
(0.00274059 -0.0175971 0)
(0.00158702 -0.0176333 0)
(0.00110222 -0.01964 0)
(-0.000437549 -0.0201881 0)
(-0.00398504 -0.0190732 0)
(-0.00732851 -0.0184098 0)
(-0.00978861 -0.016788 0)
(-0.0110324 -0.0151478 0)
(-0.0122266 -0.0129187 0)
(-0.0131428 -0.0109953 0)
(-0.0125259 -0.00922386 0)
(-0.0120422 -0.00806874 0)
(-0.0125398 -0.0055549 0)
(-0.0134077 -0.00286736 0)
(-0.0145601 0.00020167 0)
(0.000788204 -0.00986971 0)
(0.00202453 -0.0103523 0)
(0.002644 -0.0115283 0)
(0.00279041 -0.0128294 0)
(0.00239729 -0.0139037 0)
(0.00228447 -0.0144657 0)
(0.00289315 -0.015036 0)
(0.0025719 -0.0160853 0)
(0.00222192 -0.0168584 0)
(0.000832313 -0.0169931 0)
(7.19936e-05 -0.0182532 0)
(-8.36972e-05 -0.018637 0)
(-0.00306178 -0.0177529 0)
(-0.00619923 -0.0169533 0)
(-0.00821417 -0.0155712 0)
(-0.00926496 -0.0139768 0)
(-0.0102172 -0.0121912 0)
(-0.011105 -0.0102112 0)
(-0.0109689 -0.00850613 0)
(-0.0104751 -0.00719045 0)
(-0.0105386 -0.00512516 0)
(-0.0110228 -0.00309352 0)
(-0.0117846 -0.000581904 0)
(0.00044358 -0.0106606 0)
(0.00114169 -0.0112476 0)
(0.00149194 -0.0121301 0)
(0.00155705 -0.01315 0)