/*--------------------------------*- C++ -*----------------------------------*\
| =========                 |                                                 |
| \\      /  F ield         | foam-extend: Open Source CFD                    |
|  \\    /   O peration     | Version:     4.1                                |
|   \\  /    A nd           | Web:         http://www.foam-extend.org         |
|    \\/     M anipulation  |                                                 |
\*---------------------------------------------------------------------------*/
FoamFile
{
    version     2.0;
    format      ascii;
    class       volVectorField;
    location    "0.05";
    object      U_0;
}
// * * * * * * * * * * * * * * * * * * * * * * * * * * * * * * * * * * * * * //

dimensions      [0 1 -1 0 0 0 0];

internalField   nonuniform List<vector> 
2268
(
(0.000965889 -0.000441695 0)
(0.00279863 -0.000425601 0)
(0.004527 -0.000373132 0)
(0.00588095 -0.000284329 0)
(0.0061458 -5.21073e-05 0)
(0.00434121 0.000327056 0)
(-0.00208643 0.0012131 0)
(-0.0141806 0.00247252 0)
(-0.0326222 0.00466664 0)
(-0.0671154 0.0086031 0)
(-0.0879233 0.00990161 0)
(-0.0696623 -0.00469949 0)
(-0.0852108 -0.0159746 0)
(0.092369 -0.107412 0)
(0.414208 -0.0445188 0)
(0.621915 0.00373384 0)
(0.342252 0.033038 0)
(0.144101 0.0224981 0)
(0.0991141 0.0080704 0)
(0.062415 0.00432118 0)
(0.0386095 0.00341094 0)
(0.0258182 0.00450599 0)
(0.00923631 0.00443201 0)
(0.000975012 -0.00132075 0)
(0.00283497 -0.0012836 0)
(0.00459911 -0.00112639 0)
(0.00603818 -0.000871701 0)
(0.00643919 -0.000192508 0)
(0.00493989 0.000989104 0)
(-0.00108029 0.00335411 0)
(-0.0125899 0.00707018 0)
(-0.0298884 0.014445 0)
(-0.0646901 0.0244825 0)
(-0.0969814 0.0366152 0)
(-0.117422 0.017057 0)
(-0.158934 -0.105299 0)
(0.19256 -0.208432 0)
(0.433025 -0.0652303 0)
(0.457246 0.0296099 0)
(0.18216 0.0869602 0)
(0.123097 0.0503692 0)
(0.0933451 0.0210409 0)
(0.0618141 0.011765 0)
(0.0395462 0.0106259 0)
(0.0267616 0.0141977 0)
(0.00936604 0.0135962 0)
(0.000984904 -0.00218674 0)
(0.00289355 -0.00216328 0)
(0.00472611 -0.00190268 0)
(0.00632812 -0.00149902 0)
(0.00703049 -0.000416573 0)
(0.00601974 0.00158775 0)
(0.000781804 0.00507432 0)
(-0.00893727 0.010817 0)
(-0.0246687 0.0244385 0)
(-0.0559977 0.0386658 0)
(-0.0858499 0.0657073 0)
(-0.0661424 0.0389064 0)
(-0.0905614 -0.194153 0)
(0.0988723 -0.254612 0)
(0.17962 -0.0673303 0)
(0.157708 0.104756 0)
(0.0847345 0.116889 0)
(0.0964782 0.059582 0)
(0.0828289 0.0298571 0)
(0.0590315 0.0170707 0)
(0.0406449 0.0180295 0)
(0.0277106 0.0219576 0)
(0.00912594 0.0229713 0)
(0.000985855 -0.00308035 0)
(0.00296759 -0.00306692 0)
(0.00490863 -0.00271319 0)
(0.00673318 -0.00216134 0)
(0.0078866 -0.000807645 0)
(0.0075137 0.00191048 0)
(0.00324701 0.00631491 0)
(-0.00345355 0.0137662 0)
(-0.0173709 0.0313594 0)
(-0.0432794 0.0510831 0)
(-0.0936169 0.0900099 0)
(-0.180543 0.0736597 0)
(-0.282939 -0.354981 0)
(0.269118 -0.396434 0)
(0.278395 -0.256079 0)
(0.0308378 0.0881182 0)
(0.055893 0.110537 0)
(0.0778628 0.0570224 0)
(0.0738498 0.0342822 0)
(0.0564206 0.0216881 0)
(0.0419583 0.0251386 0)
(0.0291393 0.0276952 0)
(0.00987559 0.0322039 0)
(0.000990835 -0.0041282 0)
(0.00306508 -0.00401033 0)
(0.00514798 -0.00357619 0)
(0.0072183 -0.00279952 0)
(0.00893841 -0.00141892 0)
(0.00935171 0.00182184 0)
(0.00634091 0.00707301 0)
(0.00280494 0.0166388 0)
(-0.00735714 0.0351007 0)
(-0.0270751 0.0635428 0)
(-0.0612653 0.111652 0)
(-0.141701 0.214277 0)
(-0.214349 -0.507869 0)
(-0.0217667 -0.436609 0)
(-0.310355 -0.0589171 0)
(-0.112863 0.110861 0)
(0.0297076 0.0880032 0)
(0.062009 0.0532463 0)
(0.0664426 0.035361 0)
(0.054845 0.0274346 0)
(0.0435842 0.0320182 0)
(0.0310549 0.0349707 0)
(0.0113162 0.0430402 0)
(0.00104118 -0.00531075 0)
(0.00322554 -0.00501765 0)
(0.00547326 -0.00454185 0)
(0.00773964 -0.00363922 0)
(0.0100494 -0.00230995 0)
(0.0114875 0.0011309 0)
(0.0101587 0.00691615 0)
(0.0095145 0.0190557 0)
(0.00465411 0.0362356 0)
(-0.00794045 0.0705589 0)
(0.000123957 0.120121 0)
(0.0358942 0.2692 0)
(0.135418 -0.492588 0)
(-0.263014 -0.145982 0)
(-0.185052 -0.203956 0)
(-0.0747549 0.0616903 0)
(0.0248196 0.05825 0)
(0.0548175 0.0468 0)
(0.0617414 0.0359839 0)
(0.0549126 0.033324 0)
(0.0455968 0.038268 0)
(0.0342929 0.043227 0)
(0.0138445 0.061375 0)
(0.00112878 -0.0063971 0)
(0.00342417 -0.00609406 0)
(0.00579055 -0.00561414 0)
(0.00825731 -0.00474887 0)
(0.0111658 -0.00346606 0)
(0.0136572 -0.000226778 0)
(0.0146767 0.0060553 0)
(0.016313 0.019521 0)
(0.0170037 0.0351028 0)
(0.0128708 0.0700657 0)
(0.0321869 0.11489 0)
(0.0933011 0.160125 0)
(0.297955 -0.489349 0)
(0.49061 -0.411053 0)
(-0.0159939 -0.120342 0)
(-0.0227657 0.0367571 0)
(0.0271869 0.0436464 0)
(0.0531772 0.0397328 0)
(0.0602165 0.038046 0)
(0.0559016 0.0371601 0)
(0.0482259 0.0436543 0)
(0.0420381 0.0502062 0)
(0.0200335 0.0695681 0)
(0.00118365 -0.00740043 0)
(0.00359054 -0.00726113 0)
(0.00609862 -0.00680379 0)
(0.00873649 -0.00589492 0)
(0.0121528 -0.00444681 0)
(0.0159178 -0.00209413 0)
(0.0193545 0.0047556 0)
(0.0230328 0.0178668 0)
(0.0281754 0.0332746 0)
(0.0302856 0.0621443 0)
(0.0511332 0.10274 0)
(0.063245 0.10586 0)
(0.0807197 -0.397207 0)
(-0.243359 -0.0449613 0)
(-0.334589 -0.0784627 0)
(-0.0122811 0.00790486 0)
(0.0281247 0.0317227 0)
(0.0537089 0.0361234 0)
(0.0607888 0.0392958 0)
(0.0575408 0.0413411 0)
(0.05158 0.047117 0)
(0.0467533 0.0555807 0)
(0.0234784 0.0822171 0)
(0.00323381 -0.00175592 0)
(0.0091721 -0.00151649 0)
(0.0138802 -0.000771747 0)
(0.0166606 -0.000369091 0)
(0.0174969 -0.000109972 0)
(0.0173172 7.53234e-05 0)
(0.0165938 0.000147615 0)
(0.0155918 0.00022927 0)
(0.0145961 0.000306398 0)
(0.0137643 0.000371388 0)
(0.0132759 0.000450646 0)
(0.0128164 0.000547649 0)
(0.0115609 0.000488566 0)
(0.00962248 0.000420392 0)
(0.00766619 0.000372172 0)
(0.00582847 0.000337797 0)
(0.00409001 0.000323288 0)
(0.00242885 0.000311582 0)
(0.00080893 0.000305076 0)
(0.00339474 -0.00540658 0)
(0.00975475 -0.00481267 0)
(0.0146234 -0.00232634 0)
(0.0172595 -0.00109219 0)
(0.0180305 -0.000305773 0)
(0.0177765 0.000244523 0)
(0.0170033 0.000469778 0)
(0.0159902 0.000731509 0)
(0.014971 0.000950963 0)
(0.0141215 0.00113941 0)
(0.0136273 0.00137525 0)
(0.0130856 0.00161767 0)
(0.0117289 0.00141548 0)
(0.00975904 0.00120795 0)
(0.00778084 0.00106778 0)
(0.00592249 0.000975239 0)
(0.00415988 0.000929202 0)
(0.0024699 0.000895695 0)
(0.000822792 0.00087383 0)
(0.00357197 -0.00930544 0)
(0.0106388 -0.00734774 0)
(0.015719 -0.00380468 0)
(0.0178403 -0.00172576 0)
(0.0184126 -0.000432673 0)
(0.0180006 0.000440186 0)
(0.0171482 0.00089774 0)
(0.0161309 0.00131327 0)
(0.0150873 0.00165721 0)
(0.0142439 0.00196878 0)
(0.0137586 0.00237867 0)
(0.0130893 0.00261034 0)
(0.0116106 0.00224564 0)
(0.0096625 0.00191598 0)
(0.00771847 0.00170289 0)
(0.00588546 0.00156659 0)
(0.00413799 0.00148309 0)
(0.00245551 0.00142933 0)
(0.000817355 0.0013924 0)
(0.00429116 -0.0135869 0)
(0.0120868 -0.00888236 0)
(0.0170152 -0.0051574 0)
(0.0186958 -0.00218465 0)
(0.0189542 -0.000474623 0)
(0.0183462 0.000667025 0)
(0.0173775 0.001443 0)
(0.016317 0.00197986 0)
(0.0152534 0.00244464 0)
(0.0144315 0.00289459 0)
(0.0139028 0.00347594 0)
(0.0130321 0.00348942 0)
(0.011435 0.00300497 0)
(0.00953006 0.00259681 0)
(0.00763372 0.00232745 0)
(0.00583014 0.00214792 0)
(0.0041023 0.00202587 0)
(0.00243413 0.00195304 0)
(0.000809566 0.00190642 0)
(0.00566828 -0.018617 0)
(0.0142352 -0.0109969 0)
(0.0185608 -0.00641038 0)
(0.0198298 -0.0024291 0)
(0.0196243 -0.000291526 0)
(0.0188154 0.00101907 0)
(0.0177061 0.00207674 0)
(0.0165569 0.00275963 0)
(0.0154767 0.00337044 0)
(0.0146824 0.00402137 0)
(0.0140113 0.00453295 0)
(0.012889 0.0042627 0)
(0.0112305 0.003724 0)
(0.00937433 0.00326541 0)
(0.00752756 0.00294184 0)
(0.00575721 0.00271805 0)
(0.00405512 0.00256514 0)
(0.00240793 0.00247698 0)
(0.000800737 0.00242355 0)
(0.00771103 -0.0271099 0)
(0.0172993 -0.0136551 0)
(0.0206404 -0.00739023 0)
(0.0212935 -0.00254878 0)
(0.0204188 -6.54153e-05 0)
(0.0193519 0.00176292 0)
(0.0181167 0.00293197 0)
(0.0168664 0.00374157 0)
(0.0157896 0.00462406 0)
(0.0149257 0.00526042 0)
(0.0140057 0.00537918 0)
(0.012687 0.00496427 0)
(0.0110108 0.004397 0)
(0.00919738 0.00389197 0)
(0.00740092 0.00352031 0)
(0.00566993 0.00326227 0)
(0.00399978 0.00308874 0)
(0.00237802 0.00298928 0)
(0.000790939 0.0029286 0)
(0.0119455 -0.0350137 0)
(0.022636 -0.0158756 0)
(0.023233 -0.0080807 0)
(0.0229354 -0.00234619 0)
(0.0214538 0.000924687 0)
(0.0200871 0.00301424 0)
(0.0185447 0.00425383 0)
(0.0172742 0.00513908 0)
(0.0161211 0.00584571 0)
(0.0150029 0.00618059 0)
(0.0138853 0.00603864 0)
(0.0124706 0.00559971 0)
(0.0107744 0.0049827 0)
(0.00900147 0.00444079 0)
(0.00725975 0.00403992 0)
(0.00557368 0.00376366 0)
(0.00393903 0.00357793 0)
(0.0023448 0.00346973 0)
(0.000779904 0.00340157 0)
(0.0204163 -0.0417983 0)
(0.0290532 -0.0167653 0)
(0.0262718 -0.00706923 0)
(0.025107 -0.00162598 0)
(0.0226842 0.00208186 0)
(0.0207599 0.00395937 0)
(0.0190152 0.00529456 0)
(0.0175403 0.00620004 0)
(0.0162312 0.0065932 0)
(0.0150075 0.00676473 0)
(0.0137585 0.00660928 0)
(0.0122381 0.00611081 0)
(0.0105181 0.00544425 0)
(0.00879662 0.00489785 0)
(0.00711311 0.00449415 0)
(0.00547359 0.00421425 0)
(0.00387489 0.00402339 0)
(0.00230889 0.00390933 0)
(0.000767773 0.00383578 0)
(0.00119952 -0.00961879 0)
(0.00376249 -0.00944912 0)
(0.00660685 -0.00914257 0)
(0.00969427 -0.00836811 0)
(0.0133515 -0.00707716 0)
(0.0190432 -0.00489346 0)
(0.0264956 0.000874362 0)
(0.0331541 0.0119151 0)
(0.0424233 0.025921 0)
(0.0545971 0.0473372 0)
(0.0684272 0.0754929 0)
(0.0517236 0.0493367 0)
(0.110897 -0.330318 0)
(0.250725 -0.297265 0)
(0.107414 -0.0971917 0)
(0.0443753 -0.0141426 0)
(0.0498757 0.0212365 0)
(0.0607922 0.0349378 0)
(0.0642795 0.0406273 0)
(0.0607961 0.0461624 0)
(0.0566582 0.0496357 0)
(0.0653057 0.0563834 0)
(0.0884299 0.0764206 0)
(0.00134682 -0.0133732 0)
(0.00399479 -0.013159 0)
(0.00697246 -0.0129072 0)
(0.0104125 -0.0122926 0)
(0.0151039 -0.0106832 0)
(0.022552 -0.00852575 0)
(0.0332621 -0.00569186 0)
(0.0438748 1.27003e-05 0)
(0.0577133 0.0139334 0)
(0.0710187 0.0338275 0)
(0.0742366 0.0589427 0)
(0.029109 0.083566 0)
(-0.0527287 -0.331837 0)
(-0.148742 -0.119946 0)
(0.018863 -0.094858 0)
(0.0729927 -0.0146194 0)
(0.0729292 0.0178794 0)
(0.0731712 0.0330303 0)
(0.0715895 0.0424865 0)
(0.0654759 0.0466711 0)
(0.0603479 0.0491337 0)
(0.0665408 0.0556078 0)
(0.0732061 0.0466211 0)
(0.00141431 -0.0174693 0)
(0.00422017 -0.0172872 0)
(0.00744842 -0.0167988 0)
(0.0118723 -0.0164873 0)
(0.017021 -0.0158787 0)
(0.0238323 -0.0154224 0)
(0.034666 -0.0142503 0)
(0.0519251 -0.0114351 0)
(0.0756783 -0.00217616 0)
(0.0994873 0.0122219 0)
(0.130211 0.0402354 0)
(0.107884 0.106268 0)
(0.231401 -0.210144 0)
(0.277938 -0.247374 0)
(0.20648 -0.107229 0)
(0.150533 -0.0012938 0)
(0.100962 0.0306789 0)
(0.0872664 0.0439475 0)
(0.0786827 0.0477116 0)
(0.0676144 0.0480727 0)
(0.0659379 0.0510438 0)
(0.0623623 0.0488669 0)
(0.0589459 0.0387005 0)
(0.00153023 -0.0211998 0)
(0.00466087 -0.0213838 0)
(0.00774856 -0.0216623 0)
(0.0112798 -0.0223357 0)
(0.0160595 -0.0237936 0)
(0.023971 -0.0244209 0)
(0.0369138 -0.0248761 0)
(0.055335 -0.0250378 0)
(0.0802208 -0.0276611 0)
(0.112832 -0.0269366 0)
(0.171817 -0.0226117 0)
(0.163261 -0.0257355 0)
(0.328303 -0.230848 0)
(0.509525 -0.240569 0)
(0.342893 -0.0131926 0)
(0.197492 0.0539868 0)
(0.120596 0.061756 0)
(0.0915606 0.0645627 0)
(0.0763192 0.0591828 0)
(0.0690449 0.054175 0)
(0.0611537 0.0507871 0)
(0.0541977 0.0423539 0)
(0.0540213 0.0392094 0)
(0.00123107 -0.024526 0)
(0.00375008 -0.0252276 0)
(0.00646649 -0.0266899 0)
(0.00967903 -0.0287268 0)
(0.014826 -0.0311066 0)
(0.0225516 -0.0343483 0)
(0.0336796 -0.0401007 0)
(0.0484474 -0.048077 0)
(0.0722744 -0.0614954 0)
(0.102196 -0.0786037 0)
(0.148947 -0.0999999 0)
(0.126064 -0.150828 0)
(0.253121 -0.257986 0)
(0.378625 -0.20443 0)
(0.248094 0.120701 0)
(0.164874 0.112127 0)
(0.113304 0.0882543 0)
(0.0861255 0.0762215 0)
(0.0689095 0.0669267 0)
(0.0594878 0.0587059 0)
(0.0542747 0.0493373 0)
(0.0508226 0.0452613 0)
(0.0491646 0.0409304 0)
(0.000828629 -0.0272773 0)
(0.00248204 -0.0280911 0)
(0.00421245 -0.0298007 0)
(0.00680023 -0.0325499 0)
(0.0103214 -0.0362448 0)
(0.0147415 -0.0428853 0)
(0.0227148 -0.0511965 0)
(0.03307 -0.0651863 0)
(0.0479399 -0.0856531 0)
(0.0725817 -0.116287 0)
(0.122358 -0.161199 0)
(0.115078 -0.259338 0)
(0.26885 -0.194928 0)
(0.302826 -0.131451 0)
(0.136746 0.204578 0)
(0.115334 0.154895 0)
(0.0873039 0.109963 0)
(0.0718993 0.0842283 0)
(0.0595626 0.0691169 0)
(0.0518063 0.0600465 0)
(0.04788 0.053506 0)
(0.0458753 0.0482632 0)
(0.0439609 0.0427399 0)
(0.000419368 -0.0290604 0)
(0.00121548 -0.0297931 0)
(0.00196641 -0.0312868 0)
(0.00315744 -0.033824 0)
(0.00435805 -0.0380943 0)
(0.00733534 -0.0438326 0)
(0.0108536 -0.0523568 0)
(0.0129407 -0.0679724 0)
(0.0189463 -0.0906769 0)
(0.0245217 -0.124289 0)
(0.0257486 -0.185315 0)
(0.00251201 -0.313987 0)
(-0.0895943 -0.163221 0)
(-0.0183627 -0.160946 0)
(0.00772118 0.176461 0)
(0.0435809 0.163103 0)
(0.0469224 0.116041 0)
(0.0474517 0.0886123 0)
(0.0457599 0.0710072 0)
(0.0442774 0.0613997 0)
(0.0426662 0.0546114 0)
(0.0400742 0.0490439 0)
(0.0382761 0.0435748 0)
(0.000100153 -0.0298248 0)
(0.000254599 -0.0304687 0)
(0.000165307 -0.0317354 0)
(-7.45525e-05 -0.033764 0)
(0.000181956 -0.037005 0)
(0.000233491 -0.0417535 0)
(-0.00194641 -0.0515117 0)
(-0.00638916 -0.0640866 0)
(-0.0114006 -0.0827817 0)
(-0.0259449 -0.113781 0)
(-0.051991 -0.167287 0)
(-0.0467768 -0.267717 0)
(-0.0943699 -0.0299258 0)
(-0.265974 -0.0677493 0)
(-0.228881 0.0825263 0)
(-0.0125419 0.120783 0)
(0.0167393 0.0953345 0)
(0.0294202 0.079283 0)
(0.0335094 0.068394 0)
(0.0358297 0.0604859 0)
(0.0356398 0.0537263 0)
(0.0348581 0.0484733 0)
(0.0340894 0.0444699 0)
(-0.00021827 -0.0292697 0)
(-0.000696354 -0.0299307 0)
(-0.00134652 -0.0312452 0)
(-0.00213598 -0.0331018 0)
(-0.00373983 -0.0355752 0)
(-0.00740661 -0.039511 0)
(-0.0120236 -0.0479152 0)
(-0.0196596 -0.0550086 0)
(-0.0343012 -0.0653258 0)
(-0.0677101 -0.0834212 0)
(-0.12822 -0.112132 0)
(-0.156186 -0.167876 0)
(-0.340723 -0.00896051 0)
(-0.342281 -0.166895 0)
(-0.224327 -0.129805 0)
(-0.0393002 0.0471436 0)
(0.00728019 0.0635147 0)
(0.0234561 0.0620616 0)
(0.028178 0.0608403 0)
(0.0300611 0.0564455 0)
(0.0308154 0.0522802 0)
(0.0308579 0.0486425 0)
(0.0305322 0.0453167 0)
(-0.000555594 -0.0277341 0)
(-0.00172076 -0.0284392 0)
(-0.00302968 -0.0298292 0)
(-0.00442225 -0.0318303 0)
(-0.006313 -0.0342638 0)
(-0.0123665 -0.0371853 0)
(-0.018019 -0.0402934 0)
(-0.0252528 -0.0432391 0)
(-0.0437831 -0.0440467 0)
(-0.0807858 -0.0381138 0)
(-0.148512 -0.021253 0)
(-0.18252 0.0411838 0)
(-0.356179 0.0247877 0)
(-0.215727 -0.235704 0)
(-0.127983 -0.268031 0)
(-0.00390661 -0.0144509 0)
(0.0222899 0.0412071 0)
(0.0294378 0.0469148 0)
(0.0292143 0.0518405 0)
(0.0277176 0.0523428 0)
(0.0280204 0.0508062 0)
(0.0279655 0.0487627 0)
(0.0274772 0.0462194 0)
(-0.000916636 -0.0260167 0)
(-0.00279209 -0.0267551 0)
(-0.00476505 -0.0278947 0)
(-0.0066368 -0.0295695 0)
(-0.00920954 -0.0320338 0)
(-0.013682 -0.0347554 0)
(-0.0186176 -0.0336507 0)
(-0.0248617 -0.0319595 0)
(-0.0335787 -0.0233493 0)
(-0.057794 0.00639495 0)
(-0.0926957 0.0749292 0)
(-0.179577 0.192869 0)
(-0.216066 -0.292684 0)
(0.309002 -0.335791 0)
(0.0338248 -0.354928 0)
(-0.0019497 -0.0634266 0)
(0.0346144 0.0326312 0)
(0.0375345 0.0396041 0)
(0.0350625 0.0442087 0)
(0.0294859 0.0484411 0)
(0.0274457 0.0500008 0)
(0.0263215 0.0494659 0)
(0.0250818 0.0475821 0)
(-0.00129107 -0.0219087 0)
(-0.00360541 -0.0225594 0)
(-0.00587293 -0.0242702 0)
(-0.00863411 -0.0266307 0)
(-0.0116342 -0.0285276 0)
(-0.014216 -0.0300445 0)
(-0.0157701 -0.0287181 0)
(-0.0164614 -0.0252949 0)
(-0.010057 -0.0177778 0)
(0.00608513 0.00597039 0)
(0.0549447 0.0672352 0)
(0.0554391 0.328466 0)
(-0.0410031 -0.473183 0)
(-0.25817 -0.264724 0)
(-0.230989 -0.313627 0)
(-0.0885052 -0.0478434 0)
(0.00259747 0.0144709 0)
(0.0401914 0.0290071 0)
(0.0399807 0.0398813 0)
(0.0341004 0.0476931 0)
(0.0291543 0.0514159 0)
(0.0255511 0.0515538 0)
(0.0228672 0.0496403 0)
(-0.00157173 -0.0177843 0)
(-0.00517895 -0.0183488 0)
(-0.00887847 -0.0198093 0)
(-0.0109458 -0.0224796 0)
(-0.0127079 -0.0254997 0)
(-0.0140633 -0.0277628 0)
(-0.0142547 -0.0283109 0)
(-0.0151181 -0.027727 0)
(-0.00720272 -0.0258673 0)
(0.0113241 -0.0180876 0)
(0.0573841 0.0282105 0)
(0.0479917 0.242424 0)
(0.317832 -0.141662 0)
(0.0889313 -0.307354 0)
(0.120095 -0.365777 0)
(0.000416432 -0.166811 0)
(0.0915355 -0.0255454 0)
(0.0714135 0.0207426 0)
(0.0556252 0.0434451 0)
(0.0414926 0.0529537 0)
(0.0314055 0.0564025 0)
(0.0245597 0.055517 0)
(0.0202229 0.0526323 0)
(-0.00184347 -0.0143416 0)
(-0.00562071 -0.0159523 0)
(-0.0100334 -0.0171229 0)
(-0.0143735 -0.0188527 0)
(-0.0168931 -0.0234511 0)
(-0.0169476 -0.0282894 0)
(-0.015713 -0.032876 0)
(-0.0144558 -0.0418114 0)
(-0.00426959 -0.0455097 0)
(0.0252897 -0.0499628 0)
(0.113458 -0.0276044 0)
(0.201486 -0.0310569 0)
(0.541992 0.00830172 0)
(0.588753 -0.200534 0)
(0.438577 -0.199583 0)
(0.135156 -0.0790817 0)
(0.156806 -0.00087019 0)
(0.117513 0.0447724 0)
(0.0742379 0.0613002 0)
(0.0474728 0.0657959 0)
(0.0316842 0.064423 0)
(0.0217194 0.0606657 0)
(0.0162371 0.0557578 0)
(-0.00312552 -0.00383147 0)
(-0.00786665 -0.010141 0)
(-0.0116875 -0.0143203 0)
(-0.0171602 -0.0156602 0)
(-0.0219902 -0.0187476 0)
(-0.0232859 -0.0261798 0)
(-0.0275815 -0.0375754 0)
(-0.0275527 -0.0572826 0)
(-0.0157826 -0.0734925 0)
(0.00925729 -0.100783 0)
(0.0903608 -0.127079 0)
(0.122592 -0.299138 0)
(0.198172 -0.170996 0)
(0.681193 -0.244819 0)
(0.967757 -0.238576 0)
(0.40679 0.0560451 0)
(0.229492 0.146723 0)
(0.144125 0.115082 0)
(0.0781018 0.0946413 0)
(0.0449689 0.0842599 0)
(0.0262081 0.074827 0)
(0.0157649 0.066327 0)
(0.0104897 0.058973 0)
(-0.00805665 0.00847493 0)
(-0.0157704 -0.00106197 0)
(-0.0150052 -0.0109218 0)
(-0.018235 -0.0111014 0)
(-0.0268619 -0.0137889 0)
(-0.0354519 -0.0282658 0)
(-0.0469176 -0.0349659 0)
(-0.050012 -0.0567908 0)
(-0.0477845 -0.0865964 0)
(-0.0414063 -0.130036 0)
(0.0125544 -0.192269 0)
(-0.0184459 -0.171153 0)
(-0.112498 -0.488691 0)
(0.0559192 -0.411846 0)
(0.207622 -0.28081 0)
(0.0273442 0.199212 0)
(0.0743475 0.262354 0)
(0.0687687 0.183041 0)
(0.0449518 0.128101 0)
(0.0276716 0.103933 0)
(0.0135478 0.0853533 0)
(0.00570651 0.0717073 0)
(0.00263299 0.06207 0)
(-0.0118496 0.0178716 0)
(-0.0255203 0.00317492 0)
(-0.0195455 -0.0072336 0)
(-0.0176629 -0.0015491 0)
(-0.0358531 0.00415098 0)
(-0.0429567 -0.0403203 0)
(-0.0558258 -0.0250823 0)
(-0.0786635 -0.051054 0)
(-0.0905976 -0.0761838 0)
(-0.0976701 -0.132784 0)
(0.0102897 -0.277477 0)
(0.127965 -0.282461 0)
(0.525102 -0.290312 0)
(-0.0147162 -0.173959 0)
(0.0876605 -0.0715157 0)
(-0.0649508 0.241511 0)
(0.00203103 0.261588 0)
(0.00378853 0.20008 0)
(0.0010523 0.152095 0)
(0.00199637 0.117235 0)
(-0.00628138 0.0910851 0)
(-0.00770816 0.0747036 0)
(-0.00698602 0.0634293 0)
(-0.0249519 0.0458447 0)
(-0.0428164 -1.11546e-05 0)
(-0.0168619 -0.0285408 0)
(-0.000828612 0.0261636 0)
(-0.0521809 0.0586366 0)
(-0.0424173 -0.0721732 0)
(-0.0515501 0.00973426 0)
(-0.095676 -0.00272634 0)
(-0.128574 -0.0127171 0)
(-0.223237 -0.0470109 0)
(-0.375512 -0.434925 0)
(-0.400966 -0.72671 0)
(-0.191448 -0.443849 0)
(0.0957816 -0.33796 0)
(0.0722094 -0.0775521 0)
(0.076042 0.242703 0)
(0.0188717 0.253128 0)
(-0.040803 0.196305 0)
(-0.0381565 0.155114 0)
(-0.0339169 0.115565 0)
(-0.0293343 0.0900779 0)
(-0.0221557 0.0737827 0)
(-0.017442 0.0624431 0)
(-0.0764544 0.0968798 0)
(-0.120178 -0.0185671 0)
(0.0278246 -0.0901328 0)
(0.112825 0.00630914 0)
(0.1552 0.0341565 0)
(0.0827016 -0.0583365 0)
(-0.251364 0.0380849 0)
(-0.165791 -0.11013 0)
(0.016924 0.082244 0)
(-0.324647 0.0655364 0)
(-0.743785 -0.458096 0)
(-0.381669 -0.391276 0)
(-0.639017 -0.479048 0)
(-0.317628 -0.183714 0)
(-0.377878 -0.170137 0)
(-0.140627 0.0636432 0)
(-0.0964985 0.253562 0)
(-0.0929866 0.183198 0)
(-0.0793392 0.131822 0)
(-0.0637828 0.0989066 0)
(-0.0483728 0.0811772 0)
(-0.035459 0.0684361 0)
(-0.027105 0.0585628 0)
(-0.0677181 0.193411 0)
(-0.183416 -0.0796208 0)
(-0.296642 -0.214548 0)
(-0.319239 -0.0315359 0)
(-0.192311 -0.0211411 0)
(0.0561338 0.3594 0)
(-0.020234 0.22522 0)
(-0.232113 -0.324919 0)
(-0.265312 0.296491 0)
(-0.0925747 0.497044 0)
(-0.222178 -0.267991 0)
(-0.199428 -0.793681 0)
(-0.273703 -0.577318 0)
(-0.221827 -0.406385 0)
(-0.494848 -0.198241 0)
(-0.434552 0.151792 0)
(-0.24582 0.212898 0)
(-0.175338 0.136457 0)
(-0.120047 0.100025 0)
(-0.0846115 0.0807348 0)
(-0.060039 0.0696869 0)
(-0.0448631 0.0604735 0)
(-0.0347051 0.0526441 0)
(-0.0745499 0.602663 0)
(-0.186198 0.0483512 0)
(-0.229394 -0.0105974 0)
(-0.183577 -0.0966978 0)
(-0.0989479 -0.064419 0)
(-0.100028 -0.0986163 0)
(-0.00601362 0.552232 0)
(-0.0863723 -0.00972277 0)
(0.0320521 -0.0712574 0)
(0.0429746 0.62903 0)
(0.00588661 -0.294328 0)
(0.0308822 -0.639789 0)
(-0.133468 -0.359716 0)
(-0.469717 -0.679756 0)
(-0.373349 -0.164094 0)
(-0.307545 0.0128445 0)
(-0.25603 0.0641163 0)
(-0.205588 0.0725866 0)
(-0.13572 0.0695499 0)
(-0.0946376 0.0636642 0)
(-0.0689306 0.0580443 0)
(-0.0527074 0.0523156 0)
(-0.0408519 0.046474 0)
(-0.0598311 0.790054 0)
(-0.128545 0.243486 0)
(-0.115079 -0.0433786 0)
(-0.0567836 -0.15768 0)
(-0.13105 -0.0675267 0)
(-0.0906283 -0.000108409 0)
(0.00143903 0.422256 0)
(0.0654047 -0.0634072 0)
(-0.000770858 -0.0221488 0)
(0.143826 0.346284 0)
(0.29634 -0.364557 0)
(0.0581835 -0.752241 0)
(-0.142715 -0.672372 0)
(-0.158768 -0.28009 0)
(-0.258722 -0.154332 0)
(-0.257563 -0.0760911 0)
(-0.206294 -0.0261538 0)
(-0.166234 0.0244921 0)
(-0.129446 0.0427193 0)
(-0.0964308 0.047547 0)
(-0.0716628 0.0456197 0)
(-0.0566147 0.0436917 0)
(-0.0451835 0.0409774 0)
(0.0801222 0.405806 0)
(0.155794 0.0702106 0)
(0.143584 -0.133263 0)
(0.0866765 -0.17885 0)
(0.0220499 -0.0993356 0)
(-0.0376379 -0.0796167 0)
(0.0474655 0.0379066 0)
(0.15504 -0.0841718 0)
(0.123616 -0.108024 0)
(0.1927 -0.0425988 0)
(0.237257 -0.198449 0)
(0.106357 -0.354004 0)
(-0.0310189 -0.259974 0)
(-0.103065 -0.252395 0)
(-0.151389 -0.178205 0)
(-0.169955 -0.0846616 0)
(-0.158656 -0.0343265 0)
(-0.138369 5.28214e-05 0)
(-0.112584 0.0198553 0)
(-0.0916814 0.03202 0)
(-0.0728307 0.035155 0)
(-0.0573746 0.0351844 0)
(-0.0465522 0.036429 0)
(0.097214 0.18785 0)
(0.178775 0.0548891 0)
(0.15158 -0.0258607 0)
(0.0870555 -0.0510285 0)
(0.0443444 -0.0361076 0)
(0.0362188 -0.0115556 0)
(0.0752702 0.0545975 0)
(0.103409 0.00963781 0)
(0.0896543 -0.0176864 0)
(0.104401 -0.0430354 0)
(0.108611 -0.149553 0)
(0.0558091 -0.223431 0)
(-0.0111462 -0.221448 0)
(-0.0531863 -0.185152 0)
(-0.0818513 -0.142873 0)
(-0.110702 -0.0864634 0)
(-0.12041 -0.0467743 0)
(-0.111196 -0.0161261 0)
(-0.0972266 0.00407504 0)
(-0.0810997 0.0158999 0)
(-0.0684875 0.024327 0)
(-0.0553182 0.0275884 0)
(-0.0452953 0.0300008 0)
(0.0460113 0.141059 0)
(0.0961307 0.0748711 0)
(0.0945644 0.0132695 0)
(0.0650746 -0.0112188 0)
(0.04586 -0.0111104 0)
(0.0400782 -0.00529816 0)
(0.059999 0.000975251 0)
(0.0823142 -0.0288388 0)
(0.0714582 -0.0489336 0)
(0.0589056 -0.0696808 0)
(0.0506027 -0.113702 0)
(0.0314986 -0.146534 0)
(0.00620784 -0.150077 0)
(-0.0251689 -0.132926 0)
(-0.0504479 -0.112446 0)
(-0.0713691 -0.0859848 0)
(-0.0872698 -0.0495857 0)
(-0.0870957 -0.0257804 0)
(-0.0803496 -0.00446951 0)
(-0.0713143 0.00632572 0)
(-0.0611243 0.0146719 0)
(-0.0516552 0.0206127 0)
(-0.0429583 0.022791 0)
(0.021707 0.0804337 0)
(0.0500414 0.0517974 0)
(0.0588204 0.016462 0)
(0.0502045 -0.000834882 0)
(0.0420523 -0.00533539 0)
(0.044045 -0.00502562 0)
(0.0512725 -0.00588239 0)
(0.0534755 -0.0260373 0)
(0.0481629 -0.0494379 0)
(0.03899 -0.0618332 0)
(0.0314987 -0.0761443 0)
(0.0197143 -0.0868875 0)
(0.0039434 -0.0953461 0)
(-0.0143645 -0.0982644 0)
(-0.0344368 -0.0856539 0)
(-0.047089 -0.0731699 0)
(-0.0593956 -0.0472311 0)
(-0.0657112 -0.0261196 0)
(-0.0649335 -0.0110964 0)
(-0.0618198 0.00128519 0)
(-0.0541223 0.00816438 0)
(-0.0471486 0.0139563 0)
(-0.0409247 0.0170129 0)
(0.0117131 0.0434933 0)
(0.0291617 0.0312527 0)
(0.0389987 0.0135946 0)
(0.0402398 0.00174621 0)
(0.0397299 -0.00271987 0)
(0.0386572 -0.00575673 0)
(0.0385678 -0.0148837 0)
(0.0387651 -0.0275771 0)
(0.0359431 -0.0390735 0)
(0.0315131 -0.0476787 0)
(0.0249986 -0.0526066 0)
(0.0125198 -0.0583317 0)
(-0.00448932 -0.0628746 0)
(-0.0146264 -0.0688414 0)
(-0.0253265 -0.0641947 0)
(-0.0327568 -0.0549603 0)
(-0.0395171 -0.0433805 0)
(-0.0504707 -0.0265022 0)
(-0.0528016 -0.0148918 0)
(-0.0519516 -0.00413472 0)
(-0.048366 0.00329666 0)
(-0.0427544 0.00820102 0)
(-0.0375785 0.0123861 0)
(0.00728833 0.0238448 0)
(0.0193421 0.0183514 0)
(0.0284764 0.00971825 0)
(0.032984 0.00230718 0)
(0.0339798 -0.0034001 0)
(0.0315059 -0.010157 0)
(0.0291806 -0.0169146 0)
(0.0292705 -0.0256632 0)
(0.0280854 -0.0333943 0)
(0.0250562 -0.039873 0)
(0.0204799 -0.044336 0)
(0.00946775 -0.0473227 0)
(-0.00611753 -0.048342 0)
(-0.0151452 -0.0484632 0)
(-0.020242 -0.0501924 0)
(-0.0260293 -0.0402678 0)
(-0.0306906 -0.0376946 0)
(-0.0368332 -0.0267914 0)
(-0.0423536 -0.016029 0)
(-0.0435506 -0.00762394 0)
(-0.0417141 0.000389685 0)
(-0.0379987 0.0048602 0)
(-0.0339495 0.0089138 0)
(0.00531927 0.0136473 0)
(0.0148137 0.0109502 0)
(0.0227148 0.00601286 0)
(0.0267884 0.000587261 0)
(0.0269321 -0.0050965 0)
(0.0247804 -0.0115163 0)
(0.0229129 -0.0167215 0)
(0.02224 -0.0227463 0)
(0.0217076 -0.0296956 0)
(0.0203692 -0.0353159 0)
(0.0173485 -0.0385728 0)
(0.00848771 -0.0398274 0)
(-0.00539662 -0.0393731 0)
(-0.0161428 -0.0379006 0)
(-0.0168626 -0.0379131 0)
(-0.0201111 -0.0345004 0)
(-0.0259563 -0.0308918 0)
(-0.0286271 -0.0253507 0)
(-0.0334199 -0.017154 0)
(-0.0354238 -0.00893821 0)
(-0.0358144 -0.00254526 0)
(-0.0341765 0.00248313 0)
(-0.0306432 0.00610061 0)
(0.00415584 0.00806015 0)
(0.0116227 0.00627688 0)
(0.0179995 0.00250953 0)
(0.0216709 -0.00249746 0)
(0.0216484 -0.00715314 0)
(0.0196507 -0.0116741 0)
(0.0178212 -0.0163554 0)
(0.016245 -0.0209104 0)
(0.0154753 -0.0264241 0)
(0.0160891 -0.0310061 0)
(0.0159 -0.0335411 0)
(0.00862216 -0.0351403 0)
(-0.00414025 -0.0340772 0)
(-0.0135121 -0.0322796 0)
(-0.0166947 -0.0294772 0)
(-0.0189063 -0.0313943 0)
(-0.0214512 -0.0258043 0)
(-0.0230652 -0.0231621 0)
(-0.0257748 -0.0167838 0)
(-0.0288235 -0.0105253 0)
(-0.0302409 -0.00489876 0)
(-0.0293048 0.000418391 0)
(-0.0271276 0.00404969 0)
(0.00329805 0.00415001 0)
(0.00920126 0.00267334 0)
(0.0138581 -0.000558524 0)
(0.0169832 -0.00453071 0)
(0.0176003 -0.00879151 0)
(0.0154474 -0.0125801 0)
(0.0135919 -0.0163809 0)
(0.0121398 -0.0199206 0)
(0.0115855 -0.0229541 0)
(0.0132243 -0.0251745 0)
(0.0131668 -0.027906 0)
(0.00790008 -0.0310245 0)
(-0.00252862 -0.0315197 0)
(-0.0114665 -0.0288733 0)
(-0.0158898 -0.0263162 0)
(-0.016373 -0.0250375 0)
(-0.0176335 -0.0221821 0)
(-0.0195671 -0.0197041 0)
(-0.020712 -0.0153422 0)
(-0.0234305 -0.0108154 0)
(-0.0248071 -0.00544004 0)
(-0.0251859 -0.00115924 0)
(-0.0241294 0.00227064 0)
(0.00253933 0.00109237 0)
(0.00686233 -0.000376662 0)
(0.0107301 -0.00265187 0)
(0.0133537 -0.00547872 0)
(0.0134987 -0.00940381 0)
(0.0119646 -0.013116 0)
(0.0104181 -0.0158273 0)
(0.00964871 -0.0182753 0)
(0.010225 -0.0192161 0)
(0.0111472 -0.0210284 0)
(0.00999654 -0.0237305 0)
(0.0049431 -0.0264244 0)
(-0.00198906 -0.0284123 0)
(-0.00827372 -0.0258354 0)
(-0.0127805 -0.0236743 0)
(-0.0147092 -0.0205061 0)
(-0.0160736 -0.0201562 0)
(-0.0161784 -0.01674 0)
(-0.0168555 -0.0144146 0)
(-0.0188343 -0.0104167 0)
(-0.0205199 -0.00647149 0)
(-0.0215619 -0.00237088 0)
(-0.0208031 0.00110465 0)
(0.00174904 -0.001382 0)
(0.00542798 -0.00240301 0)
(0.00871922 -0.00381258 0)
(0.0101767 -0.00629996 0)
(0.00989026 -0.00944208 0)
(0.00895384 -0.0124582 0)
(0.00839066 -0.0143765 0)
(0.0087397 -0.0153723 0)
(0.00883819 -0.0161791 0)
(0.00870708 -0.0184352 0)
(0.00772952 -0.0208425 0)
(0.00317052 -0.0226604 0)
(-0.00195315 -0.023117 0)
(-0.00671317 -0.0224874 0)
(-0.0105176 -0.0208306 0)
(-0.0128069 -0.0185246 0)
(-0.0138333 -0.0166988 0)
(-0.0137821 -0.0143374 0)
(-0.0143617 -0.0130672 0)
(-0.0154373 -0.00956347 0)
(-0.016702 -0.00677485 0)
(-0.0175678 -0.0030433 0)
(-0.0178763 0.000107281 0)
(0.00148087 -0.00293735 0)
(0.00443232 -0.00343744 0)
(0.00680906 -0.00483487 0)
(0.00768051 -0.00704163 0)
(0.00728825 -0.00932985 0)
(0.00698137 -0.0113414 0)
(0.00748216 -0.0126779 0)
(0.00784376 -0.0134305 0)
(0.00715627 -0.0148832 0)
(0.00646725 -0.0163943 0)
(0.00574285 -0.0187497 0)
(0.00264567 -0.0200247 0)
(-0.00183441 -0.0196013 0)
(-0.00599203 -0.0195536 0)
(-0.00879238 -0.0180222 0)
(-0.0105363 -0.0164833 0)
(-0.0118473 -0.0139709 0)
(-0.0125209 -0.0127187 0)
(-0.0120544 -0.0112193 0)
(-0.0125124 -0.00900703 0)
(-0.0139485 -0.00635219 0)
(-0.0146376 -0.00354626 0)
(-0.0151969 -0.000602228 0)
(0.00123805 -0.003693 0)
(0.00353975 -0.00425319 0)
(0.00509057 -0.00563511 0)
(0.00564905 -0.00747917 0)
(0.00555424 -0.0090938 0)
(0.00557632 -0.0104777 0)
(0.00629219 -0.0117144 0)
(0.00652878 -0.0129733 0)
(0.00586502 -0.0144485 0)
(0.00482703 -0.0152671 0)
(0.00407949 -0.0172723 0)
(0.00230577 -0.0182148 0)
(-0.00149283 -0.0178043 0)
(-0.00513189 -0.0174062 0)
(-0.00743073 -0.016096 0)
(-0.00872806 -0.0147991 0)
(-0.0100363 -0.0128303 0)
(-0.0110072 -0.0113094 0)
(-0.0106242 -0.00957199 0)
(-0.010551 -0.00859705 0)
(-0.0112044 -0.00620247 0)
(-0.0117817 -0.00399973 0)
(-0.0126197 -0.00131293 0)
(0.000924051 -0.00459481 0)
(0.00250038 -0.00525115 0)
(0.00356276 -0.00651521 0)
(0.00419747 -0.00795157 0)
(0.00426623 -0.00931802 0)
(0.00434284 -0.0103535 0)
(0.00497678 -0.0113142 0)
(0.00509966 -0.0125623 0)
(0.00485497 -0.0136909 0)
(0.00363433 -0.0144288 0)
(0.00278035 -0.0159679 0)
(0.00210471 -0.0167403 0)
(-0.00103066 -0.016457 0)
(-0.00427867 -0.0159064 0)
(-0.00617277 -0.014802 0)
(-0.00725311 -0.0135329 0)
(-0.00833252 -0.0120077 0)
(-0.00923802 -0.0103253 0)
(-0.00932254 -0.00885719 0)
(-0.00912771 -0.0077832 0)
(-0.00932533 -0.00575725 0)
(-0.0097166 -0.0040049 0)
(-0.0102003 -0.00182818 0)
(0.000593845 -0.00575859 0)