/*--------------------------------*- C++ -*----------------------------------*\
| =========                 |                                                 |
| \\      /  F ield         | foam-extend: Open Source CFD                    |
|  \\    /   O peration     | Version:     4.1                                |
|   \\  /    A nd           | Web:         http://www.foam-extend.org         |
|    \\/     M anipulation  |                                                 |
\*---------------------------------------------------------------------------*/
FoamFile
{
    version     2.0;
    format      ascii;
    class       volScalarField;
    location    "0.9";
    object      alpha1;
}
// * * * * * * * * * * * * * * * * * * * * * * * * * * * * * * * * * * * * * //

dimensions      [0 0 0 0 0 0 0];

internalField   nonuniform List<scalar> 
2268
(
0.638614
0.648327
0.689964
0.664279
0.691232
0.669576
0.703879
0.695801
0.704117
0.944081
0.998584
0.997951
0.999647
0.999777
0.999863
0.999911
0.999965
0.99996
0.999519
0.997973
0.996986
0.954519
0.641774
0.608711
0.622419
0.639176
0.549636
0.698212
0.776717
0.838572
0.873219
0.879793
0.890407
0.994744
0.990806
0.998992
0.999279
0.999556
0.999681
0.999899
0.999963
0.999879
0.999627
0.999692
0.993877
0.961492
0.552169
0.544476
0.493999
0.427982
0.615298
0.759285
0.797434
0.815303
0.79128
0.675606
0.90389
0.992644
0.997798
0.996677
0.996566
0.998349
0.999716
0.999925
0.999958
0.999942
0.999669
0.997545
0.990049
0.511758
0.46362
0.46219
0.364217
0.61818
0.73543
0.754453
0.77017
0.788275
0.891552
0.942396
0.990488
0.989655
0.978295
0.984436
0.992729
0.998734
0.999564
0.999883
0.999861
0.999637
0.996988
0.992381
0.505442
0.473533
0.486709
0.420434
0.671534
0.732693
0.753284
0.811046
0.875252
0.929853
0.959847
0.968612
0.953502
0.919759
0.949207
0.971235
0.994485
0.99808
0.999315
0.999186
0.998656
0.99305
0.991401
0.50129
0.455748
0.604944
0.346044
0.587902
0.680491
0.679923
0.78884
0.834281
0.903461
0.939357
0.920361
0.881023
0.760413
0.891346
0.921724
0.977651
0.98857
0.99181
0.995011
0.991672
0.97955
0.984955
0.437945
0.348014
0.353706
0.317405
0.531027
0.605876
0.626041
0.746688
0.77157
0.768227
0.862088
0.793293
0.828599
0.682853
0.831615
0.876661
0.927364
0.935145
0.938621
0.964551
0.963475
0.951776
0.959105
0.418102
0.208658
0.196379
0.224226
0.360431
0.387579
0.471628
0.663595
0.695073
0.583414
0.701805
0.621316
0.769063
0.675697
0.777983
0.809708
0.811347
0.809759
0.800004
0.886238
0.864585
0.825066
0.850213
0.64318
0.604286
0.571693
0.556703
0.553318
0.555149
0.565972
0.590609
0.62306
0.649073
0.656955
0.657882
0.657457
0.658306
0.657939
0.654996
0.655762
0.676504
0.665262
0.644596
0.584973
0.547215
0.532326
0.527643
0.547129
0.576789
0.605643
0.624139
0.629561
0.621275
0.616832
0.583123
0.569546
0.594669
0.60679
0.598063
0.647966
0.646957
0.647748
0.603575
0.54482
0.520079
0.534566
0.56059
0.566631
0.562191
0.546769
0.515688
0.464044
0.465201
0.477139
0.403217
0.493395
0.539888
0.554305
0.627063
0.641867
0.648596
0.595312
0.516868
0.493963
0.503587
0.505412
0.525275
0.524159
0.482678
0.387901
0.336429
0.324163
0.340999
0.329661
0.392929
0.440225
0.528465
0.612035
0.639087
0.647581
0.577493
0.468929
0.420125
0.406844
0.400412
0.439691
0.485859
0.440417
0.312198
0.281013
0.265172
0.302899
0.383178
0.416538
0.430492
0.516117
0.602522
0.636887
0.644548
0.545634
0.379734
0.301816
0.297367
0.281442
0.352237
0.43424
0.438359
0.387827
0.280975
0.25073
0.270403
0.4129
0.46134
0.495396
0.537043
0.599446
0.636209
0.633019
0.484217
0.312353
0.271539
0.25684
0.253504
0.282028
0.253228
0.307567
0.343199
0.37408
0.314135
0.265354
0.400502
0.452404
0.49071
0.537289
0.598782
0.635431
0.608217
0.411968
0.323471
0.302532
0.278425
0.252884
0.322078
0.200195
0.218719
0.266596
0.286482
0.444287
0.405889
0.42189
0.438424
0.469258
0.519824
0.584836
0.634051
0.432488
0.202181
0.128831
0.185621
0.267534
0.325904
0.508258
0.643422
0.649916
0.493008
0.467108
0.479325
0.537004
0.67676
0.700266
0.692103
0.681195
0.650877
0.625999
0.66516
0.683712
0.584118
0.543238
0.398993
0.1802
0.187356
0.260484
0.356963
0.391378
0.383066
0.583746
0.549514
0.441774
0.350414
0.474109
0.588939
0.650819
0.629498
0.599687
0.540378
0.505825
0.499052
0.502115
0.520452
0.545041
0.547506
0.228419
0.187688
0.236106
0.258976
0.283006
0.359112
0.277343
0.342767
0.383916
0.461901
0.296765
0.464835
0.615495
0.644478
0.574936
0.529535
0.508027
0.509039
0.542382
0.561787
0.569956
0.575544
0.573847
0.163788
0.23246
0.242895
0.203148
0.154708
0.30819
0.368936
0.366784
0.327345
0.446545
0.231224
0.450751
0.601823
0.630582
0.5837
0.542693
0.510638
0.504815
0.53448
0.57954
0.595929
0.601006
0.600789
0.145654
0.22239
0.19852
0.213947
0.1388
0.192926
0.274853
0.227584
0.229957
0.322967
0.312879
0.489919
0.557693
0.568514
0.523254
0.529902
0.502931
0.4866
0.508268
0.542085
0.545518
0.492725
0.387231
0.133183
0.150934
0.0815394
0.147844
0.0783552
0.0609575
0.122639
0.152
0.19053
0.261283
0.277656
0.370079
0.448857
0.456442
0.358457
0.421473
0.403644
0.392601
0.423715
0.438658
0.390772
0.260921
0.200872
0.118264
0.070791
0.0279553
0.0496256
0.0295077
0.031779
0.0659123
0.0907246
0.118584
0.208393
0.253737
0.261273
0.283317
0.303888
0.276195
0.315756
0.276399
0.259472
0.268621
0.282183
0.230736
0.172188
0.15499
0.0903953
0.0382947
0.014972
0.0157793
0.0140529
0.0156538
0.026942
0.034801
0.0353114
0.127942
0.252063
0.292159
0.175877
0.181673
0.214831
0.243062
0.209794
0.164009
0.158805
0.161838
0.149696
0.142196
0.139774
0.0490768
0.0277518
0.0144867
0.0119061
0.0105957
0.0110627
0.0148107
0.0196478
0.0281876
0.0741806
0.175449
0.265552
0.111223
0.10612
0.156233
0.171678
0.145129
0.125606
0.126005
0.129323
0.12915
0.128883
0.132597
0.0224598
0.0158657
0.0127401
0.00931445
0.0085159
0.00658734
0.00627816
0.00812236
0.0166152
0.0411751
0.0940195
0.181161
0.0698524
0.0919962
0.110598
0.111601
0.100174
0.100426
0.116477
0.121001
0.121549
0.122732
0.124864
0.0139454
0.0115966
0.00881883
0.00397408
0.00607902
0.00743911
0.0132384
0.0226278
0.0318842
0.0476933
0.0650962
0.079534
0.0635944
0.0757915
0.0797482
0.074978
0.0682687
0.0804803
0.100433
0.115663
0.126245
0.131976
0.139729
0.0108048
0.00773803
0.00488592
0.00771837
0.0135722
0.0205373
0.0273114
0.0323707
0.0388731
0.0446391
0.0503133
0.0539196
0.0519987
0.0536145
0.0603647
0.0636483
0.070517
0.0868344
0.107153
0.118488
0.124961
0.129579
0.135585
0.00856219
0.00537251
0.00547604
0.0101795
0.0143118
0.0187551
0.0234131
0.0313807
0.0379241
0.0430043
0.0459479
0.0478135
0.0500185
0.0544008
0.0631493
0.0736625
0.0845599
0.100702
0.112137
0.118947
0.123176
0.12448
0.123678
0.00583482
0.00438475
0.00544047
0.00944345
0.0127439
0.0187092
0.0279222
0.0333417
0.0372131
0.0407419
0.0440927
0.0507261
0.0578745
0.0651416
0.0717572
0.078148
0.0890236
0.100217
0.107757
0.11108
0.110973
0.0963785
0.0740468
0.00444276
0.00370346
0.00474129
0.0072391
0.0103994
0.0190576
0.0265299
0.0310695
0.0345421
0.0392049
0.0454558
0.0541386
0.0608783
0.0667801
0.0729365
0.0792324
0.0848174
0.0877257
0.0862819
0.0800797
0.0620258
0.0308338
0.0161476
0.00359946
0.00312881
0.00392471
0.00623292
0.010049
0.017512
0.0221801
0.0245436
0.0277957
0.0338455
0.0415619
0.0504315
0.0549616
0.0566944
0.056919
0.055571
0.0540048
0.0438744
0.0327154
0.021352
0.00880521
0.00177828
0.00118345
0.00304405
0.00245192
0.00308026
0.00473438
0.00787594
0.013457
0.0173915
0.0206137
0.0243387
0.0314752
0.0376513
0.0405161
0.039327
0.028435
0.0214001
0.0174496
0.0146198
0.00918841
0.00531961
0.00216742
0.000725458
0.000384144
0.000274817
0.00246823
0.00210564
0.00288386
0.00421671
0.00663116
0.0111506
0.0141598
0.0165186
0.0220555
0.0270729
0.0287579
0.0235095
0.013233
0.00685019
0.00438071
0.0032286
0.00213324
0.00119621
0.0015434
0.00158283
0.00123141
0.000787805
0.00051355
0.00228396
0.00217347
0.00306083
0.00441714
0.00657193
0.0101017
0.0125095
0.0148775
0.0199403
0.0218979
0.0180597
0.00850803
0.00395326
0.00192768
0.0016168
0.00162183
0.0020924
0.002371
0.00245423
0.002237
0.00161469
0.00107738
0.00071788
0.00233734
0.00288705
0.00387559
0.00517758
0.00688342
0.00907773
0.0104736
0.0143301
0.0172367
0.0165385
0.0103113
0.00453643
0.00252422
0.0018052
0.00164537
0.00169454
0.00219671
0.00255207
0.00229234
0.00151289
0.000945139
0.000712527
0.000436814
0.00258015
0.00458912
0.00553485
0.00649915
0.00749185
0.00883473
0.0105527
0.0137949
0.0151204
0.0141573
0.00905884
0.00418884
0.00274049
0.00237983
0.00229481
0.00235863
0.00237461
0.0030456
0.00115617
0.000460755
0.000206355
0.000130242
8.02736e-05
0.00311357
0.0061528
0.00692371
0.00730627
0.00755988
0.00857516
0.0103391
0.0130176
0.0136198
0.0111634
0.00764475
0.00352047
0.00202931
0.0013176
0.00110524
0.000692997
0.000396788
0.00101314
0.000387533
0.000147632
6.32218e-05
3.52106e-05
2.2101e-05
0.00328464
0.00695222
0.00746337
0.0074776
0.00745294
0.00817289
0.0102935
0.0119081
0.0116364
0.00942769
0.00636327
0.0022653
0.00108915
0.000584074
0.000415107
0.000313587
0.000185499
0.000131846
9.65383e-05
5.1107e-05
2.38653e-05
1.18527e-05
4.2006e-06
0.00325445
0.00696507
0.00751216
0.00738263
0.00713612
0.00745644
0.00955307
0.0102311
0.00895712
0.00765816
0.00619576
0.00216994
0.00125378
0.000710438
0.000387706
0.000244577
0.000160013
8.00696e-05
4.28001e-05
2.12042e-05
1.05836e-05
4.23651e-06
1.72519e-06
0.00316255
0.00687549
0.00740663
0.00700387
0.00644522
0.00634124
0.00824106
0.00726272
0.00543217
0.00488752
0.00624508
0.00228451
0.00138657
0.00065631
0.000328223
0.000166676
6.53784e-05
3.37388e-05
2.04802e-05
1.09461e-05
5.96764e-06
2.00179e-06
6.59522e-07
0.00314606
0.00666902
0.00706347
0.00617914
0.00523062
0.00473668
0.00654151
0.0036084
0.0024355
0.00194884
0.00469183
0.00219733
0.00096393
0.000369587
0.000112419
5.38217e-05
3.20266e-05
1.63292e-05
8.28627e-06
4.43479e-06
2.17729e-06
6.96305e-07
1.88466e-07
0.00324536
0.00637007
0.00640744
0.0050145
0.00380409
0.00336306
0.00434771
0.00153071
0.00082002
0.000499869
0.00154625
0.000833326
0.000299688
0.000106813
3.35364e-05
1.41294e-05
8.57739e-06
4.80809e-06
2.18861e-06
9.65261e-07
4.81786e-07
1.79797e-07
4.06926e-08
0.00344124
0.00601528
0.00552034
0.00382032
0.00278733
0.00252355
0.00295578
0.00106231
0.000454284
0.000131834
0.000250002
0.000135163
5.55252e-05
2.03961e-05
7.33814e-06
3.5348e-06
2.18004e-06
1.22277e-06
6.37254e-07
2.4483e-07
6.93027e-08
2.32909e-08
7.60315e-09
0.00365494
0.00563171
0.00463988
0.00296121
0.00208148
0.00187417
0.00199242
0.000874297
0.000370941
0.000180602
8.6783e-05
4.06373e-05
1.75222e-05
6.27521e-06
2.16449e-06
1.08707e-06
6.38074e-07
3.57696e-07
1.71342e-07
6.92924e-08
2.62433e-08
8.74771e-09
2.0201e-09
0.00375375
0.00521012
0.00394916
0.00243406
0.00162019
0.00136415
0.00130673
0.000689088
0.000342165
0.000172836
7.26053e-05
2.71375e-05
8.71718e-06
2.40249e-06
7.39203e-07
3.03199e-07
1.6165e-07
9.16505e-08
3.70422e-08
1.23254e-08
3.85378e-09
1.08512e-09
2.30314e-10
0.00373403
0.00489052
0.00334767
0.00212939
0.00137169
0.00105678
0.000915755
0.000529007
0.000269085
0.000115816
3.65977e-05
8.33049e-06
1.69418e-06
3.33925e-07
1.0632e-07
6.47401e-08
3.89488e-08
1.9996e-08
7.09913e-09
2.03677e-09
3.89861e-10
8.54609e-11
1.90911e-11
0.00367023
0.00460633
0.00304166
0.00200712
0.00131014
0.00087159
0.000616605
0.000325863
0.00012138
4.04948e-05
1.41942e-05
4.28364e-06
1.12481e-06
2.89151e-07
6.42214e-08
1.92977e-08
9.14674e-09
4.48515e-09
1.59254e-09
5.04011e-10
1.41237e-10
3.36635e-11
5.14938e-12
0.0035209
0.00428353
0.00291761
0.00189954
0.00126727
0.000726617
0.000357808
0.000190788
8.31872e-05
2.83182e-05
7.90595e-06
1.94867e-06
3.88739e-07
5.56787e-08
9.43207e-09
3.31089e-09
1.42933e-09
6.61393e-10
2.40749e-10
6.44662e-11
1.47883e-11
3.32695e-12
5.61551e-13
0.00316002
0.00373847
0.00281032
0.00182505
0.00113179
0.000541913
0.000210104
9.09413e-05
3.50594e-05
1.15368e-05
3.00348e-06
6.62661e-07
1.23882e-07
2.04338e-08
2.55824e-09
4.72488e-10
1.61888e-10
5.90401e-11
1.70718e-11
4.84163e-12
1.13393e-12
1.92402e-13
3.91909e-14
0.00221374
0.00267864
0.00218511
0.0014843
0.000784648
0.000287249
7.03429e-05
2.5445e-05
8.66841e-06
2.86117e-06
7.30562e-07
1.28459e-07
2.25783e-08
4.18101e-09
8.6144e-10
1.88748e-10
3.40176e-11
6.80517e-12
1.6247e-12
2.8072e-13
5.7343e-14
2.29816e-14
1.47105e-14
0.000819221
0.00128135
0.00114319
0.000846786
0.000418182
0.000151797
4.01661e-05
8.10601e-06
1.98768e-06
5.02853e-07
1.30802e-07
2.4469e-08
4.14264e-09
6.88066e-10
1.51303e-10
4.85624e-11
1.36814e-11
2.20785e-12
3.51719e-13
6.06182e-14
2.35367e-14
1.45439e-14
1.2379e-14
0.000156801
0.00048323
0.000466819
0.000345646
0.000137862
4.82509e-05
1.2161e-05
2.64353e-06
6.32024e-07
1.33156e-07
2.92918e-08
5.07617e-09
8.20823e-10
1.30542e-10
2.97747e-11
1.00887e-11
3.21737e-12
7.08322e-13
1.08413e-13
2.39253e-14
1.69309e-14
1.24345e-14
1.19904e-14
2.11247e-05
0.000145778
0.000156634
0.000118335
3.50626e-05
1.34328e-05
3.00721e-06
5.9498e-07
1.55682e-07
2.62488e-08
4.03025e-09
4.57601e-10
5.9146e-11
1.01985e-11
3.71975e-12
1.34814e-12
3.88356e-13
7.86593e-14
2.498e-14
1.60982e-14
1.44884e-14
1.31561e-14
1.28231e-14
3.25889e-06
3.13952e-05
4.00858e-05
3.04581e-05
6.54591e-06
2.86793e-06
6.17381e-07
1.12239e-07
3.09431e-08
5.46967e-09
9.30062e-10
1.04621e-10
9.58889e-12
1.70897e-12
7.27807e-13
1.95954e-13
6.43374e-14
2.16493e-14
1.33782e-14
1.34337e-14
1.31561e-14
9.88098e-15
1.07137e-14
4.47315e-07
4.32992e-06
8.74082e-06
6.21364e-06
1.00221e-06
5.05584e-07
1.07469e-07
1.67936e-08
4.6383e-09
5.9917e-10
1.14643e-10
1.24273e-11
1.14758e-12
2.99039e-13
1.30118e-13
3.92464e-14
2.08167e-14
1.38778e-14
1.39333e-14
1.2379e-14
1.34892e-14
1.06581e-14
1.22125e-14
5.80692e-08
4.8581e-07
1.48953e-06
1.05849e-06
1.33355e-07
8.05618e-08
1.72851e-08
2.8033e-09
6.41547e-10
8.85156e-11
1.14522e-11
1.26704e-12
1.39444e-13
4.65739e-14
2.58127e-14
1.08247e-14
9.49241e-15
8.60423e-15
8.77076e-15
1.02696e-14
8.49321e-15
1.04361e-14
1.249e-14
6.28641e-09
4.54822e-08
1.92741e-07
1.37343e-07
1.69365e-08
1.09776e-08
2.26473e-09
3.8552e-10
5.78963e-11
9.95598e-12
9.99756e-13
8.68194e-14
2.19269e-14
1.62648e-14
1.21569e-14
9.82547e-15
8.77076e-15
1.06581e-14
1.31561e-14
1.2601e-14
9.82547e-15
1.37113e-14
1.14353e-14
0.533372
0.526309
0.517985
0.512809
0.549736
0.551024
0.55182
0.552022
0.577238
0.57004
0.556774
0.538916
0.597805
0.581379
0.545692
0.462869
0.338759
0.306446
0.256714
0.194962
0.17614
0.168717
0.162537
0.159269
0.149291
0.148846
0.149544
0.156515
0.137744
0.139653
0.146305
0.154878
0.13993
0.149829
0.16396
0.183355
0.131691
0.139721
0.146781
0.155225
0.156883
0.1703
0.177424
0.179586
0.144029
0.146409
0.145361
0.138092
0.117342
0.103208
0.0847186
0.0668903
0.0544481
0.0394305
0.0283424
0.0198211
0.00973488
0.00664016
0.00475991
0.00339883
0.00106021
0.000634777
0.000426266
0.000268059
0.000139937
8.12131e-05
4.42487e-05
2.42914e-05
0.000202635
8.88744e-05
4.59588e-05
2.36017e-05
0.000362351
0.000165117
9.02075e-05
2.90877e-05
0.000154125
4.87491e-05
2.99555e-05
1.01102e-05
4.15559e-05
1.74587e-05
1.21325e-05
4.63856e-06
1.55545e-05
7.14021e-06
5.61481e-06
2.43215e-06
3.62718e-06
2.64296e-06
2.22501e-06
1.61584e-06
7.8115e-07
6.4134e-07
4.70535e-07
3.0141e-07
2.48944e-07
1.5838e-07
8.61301e-08
6.53439e-08
7.87916e-08
3.68817e-08
1.12164e-08
5.33714e-09
1.67522e-08
9.09802e-09
3.41867e-09
1.38294e-09
2.70507e-09
1.3277e-09
5.40271e-10
1.93244e-10
4.86335e-10
2.3523e-10
1.02188e-10
3.99621e-11
6.01843e-11
2.74184e-11
1.13455e-11
4.16445e-12
4.65655e-12
1.23129e-12
4.00291e-13
1.40166e-13
1.4298e-12
4.18776e-13
1.22458e-13
3.81917e-14
1.59539e-13
5.20139e-14
1.7597e-14
9.9365e-15
1.62093e-14
1.11022e-14
1.04916e-14
9.04832e-15
1.08247e-14
9.88098e-15
9.76996e-15
1.04361e-14
9.88098e-15
1.12133e-14
1.11022e-14
1.04916e-14
1.04361e-14
1.24345e-14
1.32117e-14
1.16573e-14
1.12133e-14
1.18794e-14
1.25455e-14
9.76996e-15
9.60343e-15
1.05471e-14
9.27036e-15
3.77476e-15
1.04916e-14
9.88098e-15
6.71685e-15
1.55431e-15
8.82627e-15
2.94209e-15
1.11022e-15
2.44249e-15
5.82867e-15
2.22045e-16
2.22045e-16
0
0.506421
0.369141
0.333476
0.324074
0.326497
0.320959
0.356282
0.249161
0.375352
0.443876
0.479385
0.47016
0.460244
0.434849
0.406874
0.424958
0.503718
0.608786
0.637032
0.550001
0.525521
0.51627
0.588778
0.51644
0.527905
0.515118
0.466748
0.516862
0.550061
0.592258
0.415006
0.404201
0.39408
0.376587
0.343061
0.389176
0.539102
0.623726
0.503098
0.364717
0.342402
0.451977
0.329936
0.378293
0.447911
0.377747
0.35847
0.404249
0.462562
0.325913
0.357929
0.4018
0.366473
0.289049
0.355003
0.503851
0.603886
0.318958
0.244588
0.239313
0.234072
0.165737
0.205127
0.281212
0.299682
0.330101
0.356181
0.417475
0.446814
0.453253
0.423143
0.319218
0.255667
0.344449
0.476285
0.527177
0.160601
0.153118
0.189316
0.232035
0.262473
0.289624
0.333771
0.388031
0.435905
0.470478
0.498191
0.48781
0.437798
0.320663
0.26614
0.279226
0.424454
0.535675
0.559818
0.163694
0.208435
0.253497
0.28635
0.316127
0.350576
0.401417
0.450673
0.483574
0.497469
0.502504
0.476249
0.378173
0.305473
0.285016
0.359246
0.477983
0.573378
0.601973
0.177095
0.220025
0.255046
0.281882
0.311684
0.350539
0.395154
0.433755
0.463935
0.478859
0.487173
0.488126
0.469725
0.413462
0.350379
0.337144
0.437329
0.548202
0.590481
0.170073
0.207651
0.248998
0.269975
0.285105
0.30301
0.320379
0.339316
0.36388
0.388997
0.411347
0.451906
0.474859
0.455827
0.445716
0.435094
0.456099
0.494302
0.518283
0.210314
0.243502
0.258869
0.261969
0.261988
0.2619
0.275706
0.282043
0.267157
0.253715
0.286118
0.349943
0.390105
0.438335
0.461376
0.410645
0.381539
0.38417
0.349263
0.169691
0.197843
0.217864
0.211491
0.210027
0.194132
0.209714
0.20757
0.170045
0.142114
0.169592
0.191371
0.207004
0.242195
0.261683
0.190128
0.169439
0.178102
0.157464
0.178076
0.154988
0.121468
0.113645
0.100642
0.0940565
0.103086
0.100012
0.0875947
0.0625296
0.0841949
0.0898536
0.0871657
0.0926284
0.0904132
0.0671069
0.0642852
0.0620434
0.0600021
0.117694
0.0770684
0.0543905
0.0511737
0.0458133
0.0438782
0.0516865
0.0420796
0.0389475
0.0266459
0.0374142
0.0325909
0.0301048
0.0318891
0.0294955
0.024643
0.0262228
0.022985
0.0221309
0.0485133
0.0304102
0.0241297
0.0206736
0.0194006
0.0180484
0.0208011
0.0152059
0.0152332
0.00847705
0.0140049
0.00821201
0.00717359
0.0087146
0.00903559
0.0109574
0.0116077
0.00934717
0.00861746
0.0130141
0.00926149
0.00794632
0.00876098
0.00729723
0.00639853
0.0053336
0.00444148
0.00526888
0.00242369
0.00413863
0.00191047
0.00134283
0.0023578
0.00404399
0.00622182
0.00624186
0.00472671
0.00420718
0.00204875
0.00177851
0.0016604
0.0023306
0.00191792
0.00213827
0.00170804
0.00134883
0.00154544
0.000710204
0.000741024
0.000339075
0.000273484
0.000858209
0.0027775
0.00436401
0.00380396
0.0028694
0.00271701
0.000159395
0.000126814
0.000239941
0.000405123
0.000237051
0.000464163
0.000570736
0.000336823
0.000503179
0.000292002
0.000104098
5.98726e-05
0.000103507
0.000569563
0.00224927
0.00345258
0.00224174
0.00171848
0.00207296
9.68912e-06
3.43775e-06
3.04845e-05
6.73431e-05
4.36064e-05
7.78308e-05
0.000140047
5.65854e-05
0.000119557
0.000163595
3.17757e-05
1.51913e-05
4.8305e-05
0.000459519
0.00215229
0.00283789
0.00131597
0.000842243
0.0016908
6.21501e-06
8.21694e-07
4.81405e-06
1.01328e-05
8.34723e-06
1.08954e-05
2.04398e-05
1.11142e-05
2.08386e-05
7.41919e-05
1.8139e-05
5.937e-06
5.61811e-06
0.000148745
0.00156284
0.00194697
0.000762038
0.00039666
0.00142164
4.38549e-06
3.1571e-07
8.62482e-07
7.75419e-07
1.21508e-06
1.27862e-06
1.57443e-06
1.51709e-06
3.49321e-06
2.64958e-05
8.42272e-06
2.88859e-06
1.64618e-06
8.985e-06
0.000316878
0.000868784
0.000369607
0.000187092
0.00122658
2.49005e-06
1.42489e-07
1.78557e-07
5.6358e-08
2.25014e-07
1.24684e-07
2.2848e-07
2.38505e-07
9.45591e-07
8.10142e-06
2.31213e-06
7.82376e-07
6.13736e-07
2.24357e-06
7.83477e-05
0.000359461
0.000130855
0.000103211
0.001093
1.43271e-06
1.066e-07
4.55359e-08
4.10458e-09
3.71548e-08
1.21988e-08
6.49764e-08
3.79265e-08
3.99414e-07
1.86335e-06
4.39811e-07
1.57535e-07
1.71998e-07
9.52188e-07
7.5611e-05
0.000148308
4.15745e-05
6.60622e-05
0.000989848
7.52742e-07
9.65457e-08
2.43431e-08
2.79183e-09
9.35948e-10
1.30494e-09
2.00717e-08
4.10245e-09
1.11795e-07
1.80429e-07
7.34992e-08
2.91773e-08
5.23581e-08
1.25715e-07
5.84926e-06
1.4486e-05
8.83739e-06
5.32181e-05
0.000903021
5.06674e-07
8.13029e-08
1.62732e-08
2.22119e-09
3.09089e-10
3.2053e-10
4.9058e-10
3.50179e-10
1.03687e-08
1.34714e-08
7.85052e-09
7.88072e-09
2.18551e-08
6.11315e-08
4.32871e-07
9.05639e-07
4.99323e-06
5.35826e-05
0.000835051
1.58924e-07
2.69602e-08
8.6967e-09
1.17014e-09
1.75691e-10
3.46964e-11
2.42405e-11
3.51296e-11
3.01264e-09
1.75385e-09
9.84274e-10
2.70817e-09
1.23629e-08
3.93946e-08
1.94973e-07
5.42087e-07
5.00024e-06
5.70008e-05
0.000757381
4.18283e-08
8.44638e-09
2.94448e-09
4.41341e-10
6.73199e-11
8.08986e-12
3.79802e-12
8.06577e-12
9.34285e-10
2.37535e-10
2.28872e-10
1.98947e-09
1.08739e-08
3.31814e-08
1.0969e-07
4.97659e-07
6.17963e-06
5.89089e-05
0.000672249
1.94868e-09
6.0978e-10
1.02237e-10
1.39475e-11
1.80861e-12
3.01426e-13
7.03881e-13
1.86323e-12
1.00478e-10
3.10564e-11
1.42239e-10
1.74664e-09
9.68896e-09
2.82133e-08
7.49891e-08
5.19071e-07
6.95417e-06
5.79128e-05
0.000606287
3.62423e-10
1.3014e-10
3.39407e-11
2.64633e-12
2.58571e-13
4.46865e-14
1.92624e-13
3.61655e-13
3.87518e-12
1.75824e-11
1.72354e-10
1.81557e-09
1.14482e-08
2.71945e-08
6.72175e-08
5.74976e-07
6.08959e-06
4.395e-05
0.000551645
3.29649e-11
6.39427e-12
2.03054e-12
3.14582e-13
6.20615e-14
1.31561e-14
5.36793e-14
3.03924e-13
1.6358e-11
6.69604e-11
3.96187e-10
2.0671e-09
1.19497e-08
2.33353e-08
6.2572e-08
7.63424e-07
7.29953e-06
3.3002e-05
0.000504888
6.85652e-12
9.21596e-13
1.78357e-13
2.36478e-14
9.38138e-15
1.02141e-14
7.03881e-14
7.69829e-13
4.42563e-11
1.48217e-10
6.39152e-10
4.53461e-09
9.33543e-09
1.35954e-08
3.62518e-08
7.64251e-07
5.98024e-06
2.50271e-05
0.000467585
6.49647e-13
7.36633e-14
1.43219e-14
6.93889e-15
7.10543e-15
1.31561e-14
1.7597e-13
1.52905e-12
7.97862e-11
2.29338e-10
7.94778e-10
6.7846e-09
6.77972e-09
6.88684e-09
1.94082e-08
9.51833e-07
4.9181e-06
1.64812e-05
0.000432865
3.62488e-14
1.12688e-14
7.54952e-15
6.77236e-15
8.49321e-15
2.38143e-14
2.43638e-13
1.85651e-12
9.03807e-11
2.47323e-10
9.26089e-10
7.31996e-09
2.67598e-09
4.11956e-09
1.30821e-08
9.44955e-07
2.21329e-06
9.92498e-06
0.000401894
1.50435e-14
8.43769e-15
7.54952e-15
5.44009e-15
9.88098e-15
3.9857e-14
2.74336e-13
1.90198e-12
8.42029e-11
1.08143e-10
4.2301e-10
2.5252e-09
1.6576e-09
3.2361e-09
9.90212e-09
4.55432e-07
8.23727e-07
5.63698e-06
0.000359763
1.07692e-14
8.10463e-15
6.93889e-15
5.60663e-15
9.60343e-15
5.00155e-14
3.03979e-13
1.36208e-12
6.25906e-11
3.26752e-11
1.77449e-10
4.58568e-10
1.38122e-09
3.44997e-09
9.13383e-09
2.05686e-07
2.95867e-07
3.13029e-06
0.00032343
1.03251e-14
4.38538e-15
4.05231e-15
5.60663e-15
1.12133e-14
4.9849e-14
1.94955e-13
7.81541e-13
2.0249e-11
6.76553e-12
3.70601e-11
7.70909e-11
1.64532e-09
6.94008e-09
1.27075e-08
4.8613e-08
1.34226e-07
2.19941e-06
0.000479241
7.43849e-15
2.16493e-15
3.60822e-15
5.44009e-15
1.17684e-14
4.90163e-14
8.76521e-14
2.38087e-13
2.98428e-12
1.48037e-12
1.06418e-11
5.0826e-11
3.23949e-09
1.03829e-08
1.51605e-08
2.62004e-08
1.29287e-07
6.10633e-07
0.000274011
5.10703e-15
1.38778e-15
3.94129e-15
4.88498e-15
7.99361e-15
2.56462e-14
3.87468e-14
8.93174e-14
3.3501e-13
6.03573e-13
4.17366e-12
5.03165e-11
5.1117e-09
1.29713e-08
1.77009e-08
2.40277e-08
1.9835e-07
4.0795e-07
0.000248592
3.9968e-15
8.88178e-16
4.55191e-15
4.4964e-15
6.05072e-15
1.02141e-14
1.47105e-14
2.33702e-14
1.9873e-14
5.1531e-13
3.47439e-12
5.7582e-11
6.56188e-09
1.45603e-08
1.88301e-08
2.42582e-08
2.4278e-07
3.68951e-07
0.000205134
4.996e-16
3.21965e-15
3.05311e-15
2.44249e-15
6.43929e-15
7.04992e-15
9.71445e-15
4.10783e-15
2.94209e-15
9.1438e-13
4.10688e-12
9.41362e-11
9.64072e-09
1.65078e-08
2.00058e-08
2.57564e-08
2.53901e-07
3.56063e-07
0.000180696
4.10783e-15
9.10383e-15
5.77316e-15
2.72005e-15
8.04912e-15
7.04992e-15
1.0103e-14
1.72085e-15
2.33147e-15
1.1619e-12
4.99623e-12
1.48324e-10
1.2928e-08
1.90078e-08
2.07161e-08
2.57459e-08
2.44741e-07
3.50836e-07
0.000114408
7.49401e-15
1.26565e-14
6.38378e-15
2.05391e-15
1.04916e-14
1.11577e-14
1.19904e-14
1.11022e-15
2.33147e-15
1.34331e-12
5.43798e-12
2.00428e-10
1.45954e-08
2.02045e-08
2.13185e-08
2.62281e-08
2.5478e-07
3.65267e-07
6.90975e-05
9.15934e-15
1.27121e-14
5.55112e-17
3.05311e-15
1.30451e-14
1.41553e-14
1.45439e-14
0
2.66454e-15
1.52339e-12
6.21414e-12
3.09603e-10
1.58235e-08
2.09519e-08
2.17145e-08
2.63838e-08
2.29466e-07
3.76192e-07
0.000229049
9.99201e-15
1.07137e-14
0
9.54792e-15
1.47105e-14
1.60427e-14
1.60427e-14
0
4.44089e-15
1.7617e-12
5.39802e-12
7.3714e-11
1.60619e-08
2.10856e-08
2.17717e-08
2.61379e-08
2.27166e-07
3.68835e-07
0.000126456
)
;

boundaryField
{
    leftWall
    {
        type            zeroGradient;
    }
    rightWall
    {
        type            zeroGradient;
    }
    lowerWall
    {
        type            zeroGradient;
    }
    atmosphere
    {
        type            inletOutlet;
        inletValue      uniform 0;
        value           nonuniform List<scalar> 
46
(
6.28641e-09
4.54822e-08
1.92741e-07
1.37343e-07
1.69365e-08
1.09776e-08
2.26473e-09
3.8552e-10
5.78963e-11
9.95598e-12
9.99756e-13
8.68194e-14
2.19269e-14
1.62648e-14
1.21569e-14
9.82547e-15
8.77076e-15
1.06581e-14
1.31561e-14
1.2601e-14
9.82547e-15
1.37113e-14
1.14353e-14
5.82867e-15
2.22045e-16
2.22045e-16
0
9.99201e-15
1.07137e-14
0
9.54792e-15
1.47105e-14
1.60427e-14
1.60427e-14
0
4.44089e-15
1.7617e-12
5.39802e-12
7.3714e-11
1.60619e-08
2.10856e-08
2.17717e-08
2.61379e-08
2.27166e-07
3.68835e-07
0.000126456
)
;
    }
    defaultFaces
    {
        type            empty;
    }
}


// ************************************************************************* //
