/*--------------------------------*- C++ -*----------------------------------*\
| =========                 |                                                 |
| \\      /  F ield         | foam-extend: Open Source CFD                    |
|  \\    /   O peration     | Version:     4.1                                |
|   \\  /    A nd           | Web:         http://www.foam-extend.org         |
|    \\/     M anipulation  |                                                 |
\*---------------------------------------------------------------------------*/
FoamFile
{
    version     2.0;
    format      ascii;
    class       volScalarField;
    location    "0.9";
    object      C;
}
// * * * * * * * * * * * * * * * * * * * * * * * * * * * * * * * * * * * * * //

dimensions      [0 0 0 0 0 0 0];

internalField   nonuniform List<scalar> 
2268
(
0.277228
0.296654
0.379929
0.328558
0.382464
0.339152
0.407758
0.391601
0.408235
0.888162
0.997168
0.995902
0.999293
0.999554
0.999725
0.999821
0.999931
0.99992
0.999038
0.995946
0.993973
0.909037
0.283548
0.217423
0.244839
0.278351
0.0992726
0.396424
0.553433
0.677143
0.746438
0.759586
0.780815
0.989488
0.981612
0.997985
0.998559
0.999113
0.999363
0.999798
0.999925
0.999757
0.999255
0.999385
0.987754
0.922985
0.104338
0.0889525
-0.0120017
-0.144037
0.230595
0.518571
0.594867
0.630606
0.582559
0.351212
0.807779
0.985289
0.995596
0.993354
0.993132
0.996697
0.999432
0.999849
0.999916
0.999884
0.999338
0.995091
0.980099
0.0235153
-0.0727609
-0.0756209
-0.271567
0.236361
0.470861
0.508907
0.540339
0.576549
0.783104
0.884792
0.980975
0.97931
0.95659
0.968873
0.985459
0.997468
0.999128
0.999767
0.999721
0.999273
0.993976
0.984763
0.0108837
-0.0529345
-0.0265819
-0.159131
0.343069
0.465386
0.506569
0.622091
0.750505
0.859705
0.919694
0.937225
0.907003
0.839518
0.898415
0.942469
0.98897
0.99616
0.998631
0.998372
0.997311
0.986099
0.982801
0.00257937
-0.0885041
0.209889
-0.307911
0.175805
0.360982
0.359846
0.57768
0.668562
0.806923
0.878714
0.840721
0.762046
0.520826
0.782692
0.843448
0.955303
0.97714
0.98362
0.990022
0.983344
0.9591
0.96991
-0.12411
-0.303973
-0.292588
-0.36519
0.0620543
0.211752
0.252082
0.493376
0.54314
0.536455
0.724176
0.586586
0.657198
0.365706
0.66323
0.753322
0.854728
0.87029
0.877241
0.929102
0.926949
0.903553
0.918211
-0.163796
-0.582685
-0.607243
-0.551547
-0.279139
-0.224843
-0.0567442
0.32719
0.390146
0.166829
0.40361
0.242631
0.538126
0.351395
0.555967
0.619415
0.622694
0.619518
0.600009
0.772476
0.729169
0.650132
0.700426
0.286359
0.208572
0.143386
0.113407
0.106635
0.110299
0.131944
0.181219
0.246121
0.298146
0.31391
0.315764
0.314914
0.316611
0.315878
0.309992
0.311524
0.353008
0.330524
0.289193
0.169946
0.0944297
0.0646528
0.0552852
0.0942572
0.153577
0.211285
0.248278
0.259122
0.242551
0.233664
0.166247
0.139091
0.189338
0.213581
0.196127
0.295932
0.293914
0.295495
0.20715
0.0896408
0.040159
0.0691315
0.12118
0.133263
0.124382
0.0935373
0.0313755
-0.0719119
-0.0695986
-0.0457222
-0.193566
-0.0132097
0.0797766
0.108609
0.254125
0.283733
0.297191
0.190623
0.033736
-0.0120736
0.0071744
0.0108241
0.0505501
0.0483188
-0.0346436
-0.224199
-0.327142
-0.351673
-0.318002
-0.340677
-0.214142
-0.11955
0.0569307
0.224069
0.278175
0.295162
0.154986
-0.0621421
-0.159751
-0.186312
-0.199175
-0.120619
-0.0282819
-0.119166
-0.375604
-0.437973
-0.469656
-0.394203
-0.233643
-0.166924
-0.139017
0.0322334
0.205043
0.273773
0.289097
0.0912675
-0.240533
-0.396367
-0.405265
-0.437115
-0.295525
-0.131519
-0.123283
-0.224345
-0.43805
-0.49854
-0.459194
-0.174201
-0.0773203
-0.00920881
0.0740869
0.198891
0.272418
0.266037
-0.0315658
-0.375293
-0.456922
-0.48632
-0.492992
-0.435944
-0.493545
-0.384866
-0.313601
-0.251839
-0.37173
-0.469292
-0.198996
-0.0951911
-0.0185808
0.0745776
0.197563
0.270862
0.216435
-0.176064
-0.353058
-0.394936
-0.443151
-0.494232
-0.355843
-0.599611
-0.562562
-0.466809
-0.427035
-0.111425
-0.188222
-0.15622
-0.123152
-0.0614834
0.0396472
0.169672
0.268101
-0.135024
-0.595638
-0.742337
-0.628758
-0.464931
-0.348192
0.0165157
0.286844
0.299832
-0.0139842
-0.0657839
-0.0413499
0.0740071
0.353519
0.400531
0.384207
0.362391
0.301754
0.251999
0.33032
0.367423
0.168235
0.0864766
-0.202014
-0.639601
-0.625287
-0.479031
-0.286075
-0.217243
-0.233868
0.167491
0.0990285
-0.116451
-0.299171
-0.0517827
0.177877
0.301639
0.258997
0.199375
0.0807556
0.0116493
-0.00189539
0.00422966
0.0409039
0.0900814
0.0950129
-0.543161
-0.624623
-0.527788
-0.482048
-0.433989
-0.281776
-0.445315
-0.314467
-0.232169
-0.0761979
-0.40647
-0.0703294
0.230991
0.288956
0.149873
0.0590703
0.0160542
0.0180771
0.0847633
0.123574
0.139913
0.151088
0.147693
-0.672425
-0.53508
-0.514209
-0.593705
-0.690585
-0.38362
-0.262127
-0.266431
-0.345311
-0.106909
-0.537552
-0.0984989
0.203645
0.261163
0.167401
0.0853857
0.0212769
0.00962956
0.0689601
0.15908
0.191857
0.202012
0.201578
-0.708693
-0.555219
-0.60296
-0.572107
-0.722401
-0.614148
-0.450294
-0.544831
-0.540087
-0.354065
-0.374241
-0.0201613
0.115385
0.137028
0.0465083
0.0598046
0.00586104
-0.0267994
0.0165364
0.0841704
0.0910356
-0.0145496
-0.225538
-0.733634
-0.698132
-0.836921
-0.704312
-0.84329
-0.878085
-0.754721
-0.696
-0.618941
-0.477435
-0.444687
-0.259841
-0.102285
-0.0871159
-0.283087
-0.157054
-0.192711
-0.214798
-0.152569
-0.122684
-0.218455
-0.478159
-0.598257
-0.763472
-0.858418
-0.944089
-0.900749
-0.940985
-0.936442
-0.868175
-0.818551
-0.762831
-0.583214
-0.492526
-0.477453
-0.433367
-0.392223
-0.44761
-0.368489
-0.447203
-0.481056
-0.462758
-0.435634
-0.538528
-0.655623
-0.690021
-0.819209
-0.923411
-0.970056
-0.968441
-0.971894
-0.968692
-0.946116
-0.930398
-0.929377
-0.744116
-0.495874
-0.415681
-0.648246
-0.636654
-0.570338
-0.513876
-0.580412
-0.671982
-0.682389
-0.676325
-0.700609
-0.715607
-0.720452
-0.901846
-0.944496
-0.971027
-0.976188
-0.978809
-0.977875
-0.970379
-0.960704
-0.943625
-0.851639
-0.649103
-0.468897
-0.777554
-0.787761
-0.687533
-0.656643
-0.709742
-0.748788
-0.74799
-0.741354
-0.741701
-0.742234
-0.734807
-0.95508
-0.968269
-0.97452
-0.981371
-0.982968
-0.986825
-0.987444
-0.983755
-0.96677
-0.91765
-0.811961
-0.637677
-0.860295
-0.816008
-0.778805
-0.776798
-0.799652
-0.799149
-0.767046
-0.757997
-0.756902
-0.754536
-0.750273
-0.972109
-0.976807
-0.982362
-0.992052
-0.987842
-0.985122
-0.973523
-0.954744
-0.936232
-0.904613
-0.869808
-0.840932
-0.872811
-0.848417
-0.840504
-0.850044
-0.863463
-0.839039
-0.799135
-0.768674
-0.747511
-0.736049
-0.720542
-0.97839
-0.984524
-0.990228
-0.984563
-0.972856
-0.958925
-0.945377
-0.935259
-0.922254
-0.910722
-0.899373
-0.892161
-0.896003
-0.892771
-0.879271
-0.872703
-0.858966
-0.826331
-0.785694
-0.763024
-0.750078
-0.740842
-0.72883
-0.982876
-0.989255
-0.989048
-0.979641
-0.971376
-0.96249
-0.953174
-0.937239
-0.924152
-0.913991
-0.908104
-0.904373
-0.899963
-0.891198
-0.873701
-0.852675
-0.83088
-0.798596
-0.775726
-0.762106
-0.753647
-0.751041
-0.752643
-0.98833
-0.991231
-0.989119
-0.981113
-0.974512
-0.962582
-0.944156
-0.933317
-0.925574
-0.918516
-0.911815
-0.898548
-0.884251
-0.869717
-0.856486
-0.843704
-0.821953
-0.799565
-0.784487
-0.77784
-0.778054
-0.807243
-0.851906
-0.991114
-0.992593
-0.990517
-0.985522
-0.979201
-0.961885
-0.94694
-0.937861
-0.930916
-0.92159
-0.909088
-0.891723
-0.878243
-0.86644
-0.854127
-0.841535
-0.830365
-0.824549
-0.827436
-0.839841
-0.875948
-0.938332
-0.967705
-0.992801
-0.993742
-0.992151
-0.987534
-0.979902
-0.964976
-0.95564
-0.950913
-0.944409
-0.932309
-0.916876
-0.899137
-0.890077
-0.886611
-0.886162
-0.888858
-0.89199
-0.912251
-0.934569
-0.957296
-0.98239
-0.996443
-0.997633
-0.993912
-0.995096
-0.993839
-0.990531
-0.984248
-0.973086
-0.965217
-0.958773
-0.951323
-0.93705
-0.924697
-0.918968
-0.921346
-0.94313
-0.9572
-0.965101
-0.97076
-0.981623
-0.989361
-0.995665
-0.998549
-0.999232
-0.99945
-0.995064
-0.995789
-0.994232
-0.991567
-0.986738
-0.977699
-0.97168
-0.966963
-0.955889
-0.945854
-0.942484
-0.952981
-0.973534
-0.9863
-0.991239
-0.993543
-0.995734
-0.997608
-0.996913
-0.996834
-0.997537
-0.998424
-0.998973
-0.995432
-0.995653
-0.993878
-0.991166
-0.986856
-0.979797
-0.974981
-0.970245
-0.960119
-0.956204
-0.963881
-0.982984
-0.992093
-0.996145
-0.996766
-0.996756
-0.995815
-0.995258
-0.995092
-0.995526
-0.996771
-0.997845
-0.998564
-0.995325
-0.994226
-0.992249
-0.989645
-0.986233
-0.981845
-0.979053
-0.97134
-0.965527
-0.966923
-0.979377
-0.990927
-0.994952
-0.99639
-0.996709
-0.996611
-0.995607
-0.994896
-0.995415
-0.996974
-0.99811
-0.998575
-0.999126
-0.99484
-0.990822
-0.98893
-0.987002
-0.985016
-0.982331
-0.978895
-0.97241
-0.969759
-0.971685
-0.981882
-0.991622
-0.994519
-0.99524
-0.99541
-0.995283
-0.995251
-0.993909
-0.997688
-0.999078
-0.999587
-0.99974
-0.999839
-0.993773
-0.987694
-0.986153
-0.985387
-0.98488
-0.98285
-0.979322
-0.973965
-0.97276
-0.977673
-0.984711
-0.992959
-0.995941
-0.997365
-0.99779
-0.998614
-0.999206
-0.997974
-0.999225
-0.999705
-0.999874
-0.99993
-0.999956
-0.993431
-0.986096
-0.985073
-0.985045
-0.985094
-0.983654
-0.979413
-0.976184
-0.976727
-0.981145
-0.987273
-0.995469
-0.997822
-0.998832
-0.99917
-0.999373
-0.999629
-0.999736
-0.999807
-0.999898
-0.999952
-0.999976
-0.999992
-0.993491
-0.98607
-0.984976
-0.985235
-0.985728
-0.985087
-0.980894
-0.979538
-0.982086
-0.984684
-0.987608
-0.99566
-0.997492
-0.998579
-0.999225
-0.999511
-0.99968
-0.99984
-0.999914
-0.999958
-0.999979
-0.999992
-0.999997
-0.993675
-0.986249
-0.985187
-0.985992
-0.98711
-0.987318
-0.983518
-0.985475
-0.989136
-0.990225
-0.98751
-0.995431
-0.997227
-0.998687
-0.999344
-0.999667
-0.999869
-0.999933
-0.999959
-0.999978
-0.999988
-0.999996
-0.999999
-0.993708
-0.986662
-0.985873
-0.987642
-0.989539
-0.990527
-0.986917
-0.992783
-0.995129
-0.996102
-0.990616
-0.995605
-0.998072
-0.999261
-0.999775
-0.999892
-0.999936
-0.999967
-0.999983
-0.999991
-0.999996
-0.999999
-1
-0.993509
-0.98726
-0.987185
-0.989971
-0.992392
-0.993274
-0.991305
-0.996939
-0.99836
-0.999
-0.996907
-0.998333
-0.999401
-0.999786
-0.999933
-0.999972
-0.999983
-0.99999
-0.999996
-0.999998
-0.999999
-1
-1
-0.993118
-0.987969
-0.988959
-0.992359
-0.994425
-0.994953
-0.994088
-0.997875
-0.999091
-0.999736
-0.9995
-0.99973
-0.999889
-0.999959
-0.999985
-0.999993
-0.999996
-0.999998
-0.999999
-1
-1
-1
-1
-0.99269
-0.988737
-0.99072
-0.994078
-0.995837
-0.996252
-0.996015
-0.998251
-0.999258
-0.999639
-0.999826
-0.999919
-0.999965
-0.999987
-0.999996
-0.999998
-0.999999
-0.999999
-1
-1
-1
-1
-1
-0.992493
-0.98958
-0.992102
-0.995132
-0.99676
-0.997272
-0.997387
-0.998622
-0.999316
-0.999654
-0.999855
-0.999946
-0.999983
-0.999995
-0.999999
-0.999999
-1
-1
-1
-1
-1
-1
-1
-0.992532
-0.990219
-0.993305
-0.995741
-0.997257
-0.997886
-0.998168
-0.998942
-0.999462
-0.999768
-0.999927
-0.999983
-0.999997
-0.999999
-1
-1
-1
-1
-1
-1
-1
-1
-1
-0.99266
-0.990787
-0.993917
-0.995986
-0.99738
-0.998257
-0.998767
-0.999348
-0.999757
-0.999919
-0.999972
-0.999991
-0.999998
-0.999999
-1
-1
-1
-1
-1
-1
-1
-1
-1
-0.992958
-0.991433
-0.994165
-0.996201
-0.997465
-0.998547
-0.999284
-0.999618
-0.999834
-0.999943
-0.999984
-0.999996
-0.999999
-1
-1
-1
-1
-1
-1
-1
-1
-1
-1
-0.99368
-0.992523
-0.994379
-0.99635
-0.997736
-0.998916
-0.99958
-0.999818
-0.99993
-0.999977
-0.999994
-0.999999
-1
-1
-1
-1
-1
-1
-1
-1
-1
-1
-1
-0.995573
-0.994643
-0.99563
-0.997031
-0.998431
-0.999426
-0.999859
-0.999949
-0.999983
-0.999994
-0.999999
-1
-1
-1
-1
-1
-1
-1
-1
-1
-1
-1
-1
-0.998362
-0.997437
-0.997714
-0.998306
-0.999164
-0.999696
-0.99992
-0.999984
-0.999996
-0.999999
-1
-1
-1
-1
-1
-1
-1
-1
-1
-1
-1
-1
-1
-0.999686
-0.999034
-0.999066
-0.999309
-0.999724
-0.999903
-0.999976
-0.999995
-0.999999
-1
-1
-1
-1
-1
-1
-1
-1
-1
-1
-1
-1
-1
-1
-0.999958
-0.999708
-0.999687
-0.999763
-0.99993
-0.999973
-0.999994
-0.999999
-1
-1
-1
-1
-1
-1
-1
-1
-1
-1
-1
-1
-1
-1
-1
-0.999993
-0.999937
-0.99992
-0.999939
-0.999987
-0.999994
-0.999999
-1
-1
-1
-1
-1
-1
-1
-1
-1
-1
-1
-1
-1
-1
-1
-1
-0.999999
-0.999991
-0.999983
-0.999988
-0.999998
-0.999999
-1
-1
-1
-1
-1
-1
-1
-1
-1
-1
-1
-1
-1
-1
-1
-1
-1
-1
-0.999999
-0.999997
-0.999998
-1
-1
-1
-1
-1
-1
-1
-1
-1
-1
-1
-1
-1
-1
-1
-1
-1
-1
-1
-1
-1
-1
-1
-1
-1
-1
-1
-1
-1
-1
-1
-1
-1
-1
-1
-1
-1
-1
-1
-1
-1
-1
0.0667431
0.0526175
0.0359704
0.0256184
0.0994729
0.102049
0.103641
0.104043
0.154477
0.140081
0.113548
0.0778318
0.195609
0.162758
0.0913835
-0.0742611
-0.322481
-0.387108
-0.486573
-0.610075
-0.64772
-0.662567
-0.674925
-0.681462
-0.701418
-0.702307
-0.700912
-0.68697
-0.724512
-0.720694
-0.707389
-0.690245
-0.72014
-0.700342
-0.672079
-0.63329
-0.736617
-0.720558
-0.706439
-0.689549
-0.686233
-0.6594
-0.645152
-0.640828
-0.711942
-0.707182
-0.709279
-0.723815
-0.765316
-0.793583
-0.830563
-0.866219
-0.891104
-0.921139
-0.943315
-0.960358
-0.98053
-0.98672
-0.99048
-0.993202
-0.99788
-0.99873
-0.999147
-0.999464
-0.99972
-0.999838
-0.999912
-0.999951
-0.999595
-0.999822
-0.999908
-0.999953
-0.999275
-0.99967
-0.99982
-0.999942
-0.999692
-0.999903
-0.99994
-0.99998
-0.999917
-0.999965
-0.999976
-0.999991
-0.999969
-0.999986
-0.999989
-0.999995
-0.999993
-0.999995
-0.999996
-0.999997
-0.999998
-0.999999
-0.999999
-0.999999
-1
-1
-1
-1
-1
-1
-1
-1
-1
-1
-1
-1
-1
-1
-1
-1
-1
-1
-1
-1
-1
-1
-1
-1
-1
-1
-1
-1
-1
-1
-1
-1
-1
-1
-1
-1
-1
-1
-1
-1
-1
-1
-1
-1
-1
-1
-1
-1
-1
-1
-1
-1
-1
-1
-1
-1
-1
-1
-1
-1
-1
-1
-1
-1
-1
-1
-1
-1
-1
-1
-1
-1
0.0128416
-0.261717
-0.333047
-0.351851
-0.347006
-0.358081
-0.287436
-0.501679
-0.249296
-0.112248
-0.0412306
-0.0596795
-0.0795116
-0.130303
-0.186251
-0.150083
0.00743505
0.217571
0.274065
0.100002
0.0510413
0.0325405
0.177556
0.0328798
0.0558098
0.0302369
-0.0665043
0.0337242
0.100122
0.184515
-0.169988
-0.191598
-0.21184
-0.246825
-0.313878
-0.221648
0.0782035
0.247453
0.0061964
-0.270566
-0.315196
-0.0960455
-0.340128
-0.243414
-0.104179
-0.244505
-0.283061
-0.191502
-0.0748759
-0.348174
-0.284142
-0.1964
-0.267054
-0.421902
-0.289995
0.00770125
0.207772
-0.362084
-0.510823
-0.521374
-0.531856
-0.668525
-0.589745
-0.437576
-0.400635
-0.339797
-0.287638
-0.165051
-0.106371
-0.093494
-0.153714
-0.361565
-0.488666
-0.311102
-0.0474308
0.0543535
-0.678797
-0.693765
-0.621369
-0.535931
-0.475054
-0.420752
-0.332459
-0.223939
-0.12819
-0.0590433
-0.00361791
-0.02438
-0.124403
-0.358674
-0.467719
-0.441547
-0.151093
0.0713492
0.119636
-0.672612
-0.583131
-0.493006
-0.427299
-0.367746
-0.298849
-0.197165
-0.0986548
-0.0328524
-0.00506193
0.00500707
-0.0475013
-0.243655
-0.389054
-0.429967
-0.281509
-0.0440333
0.146755
0.203947
-0.645811
-0.55995
-0.489909
-0.436236
-0.376632
-0.298922
-0.209692
-0.132489
-0.0721301
-0.0422828
-0.0256545
-0.0237474
-0.0605508
-0.173076
-0.299242
-0.325711
-0.125341
0.096404
0.180963
-0.659853
-0.584699
-0.502005
-0.46005
-0.429791
-0.39398
-0.359242
-0.321369
-0.27224
-0.222006
-0.177306
-0.096188
-0.0502819
-0.0883456
-0.108568
-0.129811
-0.0878022
-0.0113955
0.0365651
-0.579372
-0.512995
-0.482263
-0.476062
-0.476024
-0.4762
-0.448589
-0.435913
-0.465685
-0.49257
-0.427765
-0.300114
-0.219789
-0.123329
-0.077247
-0.178709
-0.236922
-0.231661
-0.301474
-0.660618
-0.604314
-0.564271
-0.577017
-0.579946
-0.611736
-0.580572
-0.58486
-0.65991
-0.715773
-0.660816
-0.617257
-0.585992
-0.51561
-0.476634
-0.619745
-0.661123
-0.643797
-0.685072
-0.643848
-0.690024
-0.757065
-0.772711
-0.798716
-0.811887
-0.793827
-0.799975
-0.824811
-0.874941
-0.83161
-0.820293
-0.825669
-0.814743
-0.819174
-0.865786
-0.87143
-0.875913
-0.879996
-0.764613
-0.845863
-0.891219
-0.897653
-0.908373
-0.912244
-0.896627
-0.915841
-0.922105
-0.946708
-0.925172
-0.934818
-0.93979
-0.936222
-0.941009
-0.950714
-0.947554
-0.95403
-0.955738
-0.902973
-0.93918
-0.951741
-0.958653
-0.961199
-0.963903
-0.958398
-0.969588
-0.969534
-0.983046
-0.97199
-0.983576
-0.985653
-0.982571
-0.981929
-0.978085
-0.976785
-0.981306
-0.982765
-0.973972
-0.981477
-0.984107
-0.982478
-0.985406
-0.987203
-0.989333
-0.991117
-0.989462
-0.995153
-0.991723
-0.996179
-0.997314
-0.995284
-0.991912
-0.987556
-0.987516
-0.990547
-0.991586
-0.995903
-0.996443
-0.996679
-0.995339
-0.996164
-0.995723
-0.996584
-0.997302
-0.996909
-0.99858
-0.998518
-0.999322
-0.999453
-0.998284
-0.994445
-0.991272
-0.992392
-0.994261
-0.994566
-0.999681
-0.999746
-0.99952
-0.99919
-0.999526
-0.999072
-0.998859
-0.999326
-0.998994
-0.999416
-0.999792
-0.99988
-0.999793
-0.998861
-0.995501
-0.993095
-0.995517
-0.996563
-0.995854
-0.999981
-0.999993
-0.999939
-0.999865
-0.999913
-0.999844
-0.99972
-0.999887
-0.999761
-0.999673
-0.999936
-0.99997
-0.999903
-0.999081
-0.995695
-0.994324
-0.997368
-0.998316
-0.996618
-0.999988
-0.999998
-0.99999
-0.99998
-0.999983
-0.999978
-0.999959
-0.999978
-0.999958
-0.999852
-0.999964
-0.999988
-0.999989
-0.999703
-0.996874
-0.996106
-0.998476
-0.999207
-0.997157
-0.999991
-0.999999
-0.999998
-0.999998
-0.999998
-0.999997
-0.999997
-0.999997
-0.999993
-0.999947
-0.999983
-0.999994
-0.999997
-0.999982
-0.999366
-0.998262
-0.999261
-0.999626
-0.997547
-0.999995
-1
-1
-1
-1
-1
-1
-1
-0.999998
-0.999984
-0.999995
-0.999998
-0.999999
-0.999996
-0.999843
-0.999281
-0.999738
-0.999794
-0.997814
-0.999997
-1
-1
-1
-1
-1
-1
-1
-0.999999
-0.999996
-0.999999
-1
-1
-0.999998
-0.999849
-0.999703
-0.999917
-0.999868
-0.99802
-0.999998
-1
-1
-1
-1
-1
-1
-1
-1
-1
-1
-1
-1
-1
-0.999988
-0.999971
-0.999982
-0.999894
-0.998194
-0.999999
-1
-1
-1
-1
-1
-1
-1
-1
-1
-1
-1
-1
-1
-0.999999
-0.999998
-0.99999
-0.999893
-0.99833
-1
-1
-1
-1
-1
-1
-1
-1
-1
-1
-1
-1
-1
-1
-1
-0.999999
-0.99999
-0.999886
-0.998485
-1
-1
-1
-1
-1
-1
-1
-1
-1
-1
-1
-1
-1
-1
-1
-0.999999
-0.999988
-0.999882
-0.998656
-1
-1
-1
-1
-1
-1
-1
-1
-1
-1
-1
-1
-1
-1
-1
-0.999999
-0.999986
-0.999884
-0.998787
-1
-1
-1
-1
-1
-1
-1
-1
-1
-1
-1
-1
-1
-1
-1
-0.999999
-0.999988
-0.999912
-0.998897
-1
-1
-1
-1
-1
-1
-1
-1
-1
-1
-1
-1
-1
-1
-1
-0.999998
-0.999985
-0.999934
-0.99899
-1
-1
-1
-1
-1
-1
-1
-1
-1
-1
-1
-1
-1
-1
-1
-0.999998
-0.999988
-0.99995
-0.999065
-1
-1
-1
-1
-1
-1
-1
-1
-1
-1
-1
-1
-1
-1
-1
-0.999998
-0.99999
-0.999967
-0.999134
-1
-1
-1
-1
-1
-1
-1
-1
-1
-1
-1
-1
-1
-1
-1
-0.999998
-0.999996
-0.99998
-0.999196
-1
-1
-1
-1
-1
-1
-1
-1
-1
-1
-1
-1
-1
-1
-1
-0.999999
-0.999998
-0.999989
-0.99928
-1
-1
-1
-1
-1
-1
-1
-1
-1
-1
-1
-1
-1
-1
-1
-1
-0.999999
-0.999994
-0.999353
-1
-1
-1
-1
-1
-1
-1
-1
-1
-1
-1
-1
-1
-1
-1
-1
-1
-0.999996
-0.999042
-1
-1
-1
-1
-1
-1
-1
-1
-1
-1
-1
-1
-1
-1
-1
-1
-1
-0.999999
-0.999452
-1
-1
-1
-1
-1
-1
-1
-1
-1
-1
-1
-1
-1
-1
-1
-1
-1
-0.999999
-0.999503
-1
-1
-1
-1
-1
-1
-1
-1
-1
-1
-1
-1
-1
-1
-1
-1
-1
-0.999999
-0.99959
-1
-1
-1
-1
-1
-1
-1
-1
-1
-1
-1
-1
-1
-1
-1
-1
-0.999999
-0.999999
-0.999639
-1
-1
-1
-1
-1
-1
-1
-1
-1
-1
-1
-1
-1
-1
-1
-1
-1
-0.999999
-0.999771
-1
-1
-1
-1
-1
-1
-1
-1
-1
-1
-1
-1
-1
-1
-1
-1
-0.999999
-0.999999
-0.999862
-1
-1
-1
-1
-1
-1
-1
-1
-1
-1
-1
-1
-1
-1
-1
-1
-1
-0.999999
-0.999542
-1
-1
-1
-1
-1
-1
-1
-1
-1
-1
-1
-1
-1
-1
-1
-1
-1
-0.999999
-0.999747
)
;

boundaryField
{
    leftWall
    {
        type            zeroGradient;
    }
    rightWall
    {
        type            zeroGradient;
    }
    lowerWall
    {
        type            zeroGradient;
    }
    atmosphere
    {
        type            zeroGradient;
    }
    defaultFaces
    {
        type            empty;
    }
}


// ************************************************************************* //
