/*--------------------------------*- C++ -*----------------------------------*\
| =========                 |                                                 |
| \\      /  F ield         | foam-extend: Open Source CFD                    |
|  \\    /   O peration     | Version:     4.1                                |
|   \\  /    A nd           | Web:         http://www.foam-extend.org         |
|    \\/     M anipulation  |                                                 |
\*---------------------------------------------------------------------------*/
FoamFile
{
    version     2.0;
    format      ascii;
    class       volScalarField;
    location    "0.9";
    object      C_0;
}
// * * * * * * * * * * * * * * * * * * * * * * * * * * * * * * * * * * * * * //

dimensions      [0 0 0 0 0 0 0];

internalField   nonuniform List<scalar> 
2268
(
0.277192
0.294946
0.380692
0.32746
0.382824
0.336339
0.407307
0.390497
0.405991
0.889018
0.99718
0.995875
0.999288
0.999556
0.999725
0.999821
0.999931
0.99992
0.999042
0.995951
0.99396
0.909727
0.282888
0.216522
0.242507
0.278178
0.0907279
0.389913
0.546242
0.672858
0.746366
0.759397
0.776587
0.989457
0.981487
0.997973
0.998594
0.99913
0.99937
0.999798
0.999925
0.999757
0.999257
0.999385
0.987821
0.922836
0.101953
0.0854742
-0.0116731
-0.152099
0.217204
0.514011
0.595502
0.632769
0.585748
0.345579
0.802061
0.984938
0.995623
0.993675
0.993353
0.996737
0.999434
0.99985
0.999916
0.999885
0.999336
0.995079
0.980115
0.02316
-0.0741329
-0.0717709
-0.276195
0.225578
0.46863
0.507864
0.537478
0.570882
0.778378
0.882166
0.981131
0.9802
0.958974
0.969674
0.985494
0.997484
0.999136
0.999769
0.999722
0.999271
0.993964
0.984763
0.0113801
-0.0531683
-0.0219585
-0.171581
0.336164
0.462916
0.503743
0.615138
0.744388
0.856468
0.919194
0.937876
0.910949
0.848345
0.900357
0.942462
0.989121
0.996244
0.998677
0.998377
0.997311
0.986068
0.98279
0.00224729
-0.0934911
0.216422
-0.313876
0.161921
0.358558
0.35778
0.57556
0.667159
0.805075
0.877649
0.843683
0.76893
0.534377
0.786448
0.843144
0.955959
0.977742
0.98424
0.990035
0.983359
0.958947
0.969825
-0.13115
-0.315878
-0.308068
-0.377766
0.0487416
0.206729
0.251388
0.496431
0.546756
0.53735
0.725626
0.590728
0.661352
0.369217
0.665679
0.751697
0.85774
0.873345
0.880177
0.929162
0.927215
0.903076
0.917855
-0.162422
-0.587478
-0.611716
-0.563613
-0.291368
-0.230993
-0.063905
0.326815
0.393335
0.172388
0.40426
0.244544
0.540278
0.351724
0.55727
0.620971
0.628025
0.624817
0.603929
0.773465
0.73084
0.646124
0.698635
0.288257
0.213105
0.146951
0.114715
0.106673
0.109084
0.128222
0.175269
0.240718
0.296262
0.313637
0.315809
0.315093
0.316985
0.316595
0.310758
0.313082
0.353896
0.331624
0.290909
0.174256
0.0962593
0.0645809
0.053987
0.0894816
0.148666
0.2079
0.247499
0.25885
0.243846
0.234125
0.166626
0.139703
0.190924
0.215169
0.197411
0.296709
0.294658
0.296797
0.211284
0.092073
0.0388858
0.0644098
0.118867
0.134548
0.127884
0.0994388
0.0357587
-0.0707345
-0.0698643
-0.0467927
-0.191831
-0.0109071
0.0813531
0.108474
0.254315
0.284211
0.298188
0.194254
0.0335219
-0.0168108
0.000317658
0.00301386
0.0519325
0.0534542
-0.0200025
-0.212781
-0.325573
-0.351839
-0.320563
-0.344434
-0.218773
-0.12066
0.0566293
0.224661
0.278635
0.296081
0.157889
-0.0644811
-0.168077
-0.198184
-0.21217
-0.124997
-0.0219466
-0.104642
-0.368464
-0.436624
-0.469517
-0.398266
-0.240133
-0.174187
-0.144784
0.0317804
0.206574
0.274337
0.289845
0.0925964
-0.245761
-0.404097
-0.414609
-0.44501
-0.303426
-0.132345
-0.118482
-0.213998
-0.434944
-0.501173
-0.45934
-0.172313
-0.0752475
-0.00713479
0.0765034
0.200871
0.272966
0.266589
-0.0307188
-0.374861
-0.457223
-0.487213
-0.494658
-0.435461
-0.494431
-0.384097
-0.312101
-0.250279
-0.387678
-0.478055
-0.195011
-0.0899468
-0.0132286
0.0787658
0.20045
0.271492
0.217107
-0.173232
-0.349139
-0.390853
-0.439725
-0.494691
-0.352269
-0.599968
-0.566484
-0.473626
-0.432738
-0.115507
-0.195485
-0.15758
-0.11818
-0.0541425
0.0461102
0.174101
0.268916
-0.13375
-0.595427
-0.742944
-0.631264
-0.466151
-0.351344
0.0108831
0.286813
0.308235
-0.00857428
-0.0646359
-0.0420473
0.070746
0.352919
0.402614
0.386377
0.370085
0.307016
0.256455
0.336761
0.368645
0.164999
0.08587
-0.209233
-0.644745
-0.622931
-0.477341
-0.286409
-0.216874
-0.236469
0.167268
0.101422
-0.11091
-0.297603
-0.0606978
0.170456
0.302766
0.263274
0.20622
0.0879888
0.0129366
-0.00270927
0.00231062
0.0368069
0.0885412
0.0949876
-0.560545
-0.624454
-0.526638
-0.482031
-0.436726
-0.281591
-0.445779
-0.316889
-0.23453
-0.0735521
-0.407352
-0.0823406
0.227842
0.29223
0.15717
0.0637516
0.0160584
0.0146038
0.0797912
0.121099
0.13906
0.151977
0.150486
-0.678192
-0.533588
-0.513742
-0.594643
-0.695147
-0.388261
-0.261935
-0.264675
-0.346161
-0.106612
-0.543934
-0.115822
0.199068
0.262334
0.173727
0.0922569
0.0226185
0.00850166
0.0625737
0.154978
0.190523
0.202321
0.202783
-0.711236
-0.556044
-0.606198
-0.57089
-0.723879
-0.623711
-0.450678
-0.543284
-0.547778
-0.358957
-0.386541
-0.0313679
0.111332
0.138971
0.0494091
0.0629173
0.00813895
-0.02728
0.0103394
0.0809819
0.0919906
-0.00433798
-0.217201
-0.73539
-0.702426
-0.842299
-0.707567
-0.846466
-0.882947
-0.75931
-0.696651
-0.627136
-0.481611
-0.450422
-0.274247
-0.109185
-0.085154
-0.28647
-0.154269
-0.192277
-0.218534
-0.15788
-0.124661
-0.209039
-0.467332
-0.591735
-0.765683
-0.862274
-0.945812
-0.904449
-0.942707
-0.938302
-0.870506
-0.821526
-0.773269
-0.589823
-0.493762
-0.479725
-0.442874
-0.395942
-0.448891
-0.367278
-0.444425
-0.485103
-0.470075
-0.439367
-0.532837
-0.652768
-0.688899
-0.822929
-0.925768
-0.970528
-0.969128
-0.972449
-0.969588
-0.947714
-0.931934
-0.934647
-0.756422
-0.499488
-0.40857
-0.653322
-0.64361
-0.574955
-0.51401
-0.572414
-0.672496
-0.685885
-0.68002
-0.702584
-0.716828
-0.720596
-0.905117
-0.946062
-0.97137
-0.976333
-0.97901
-0.978335
-0.971193
-0.961534
-0.944839
-0.856432
-0.65678
-0.466814
-0.781542
-0.792956
-0.691375
-0.6586
-0.70675
-0.75073
-0.750296
-0.743059
-0.743163
-0.743851
-0.73763
-0.956234
-0.96877
-0.974768
-0.981547
-0.983136
-0.986991
-0.987567
-0.984028
-0.966957
-0.918197
-0.818023
-0.649483
-0.863491
-0.820267
-0.782487
-0.779109
-0.802467
-0.804321
-0.770483
-0.759063
-0.757402
-0.755262
-0.752028
-0.97246
-0.97708
-0.982624
-0.992158
-0.988011
-0.985138
-0.973408
-0.954172
-0.936366
-0.905777
-0.873043
-0.84643
-0.875494
-0.850993
-0.843343
-0.852072
-0.865276
-0.843789
-0.804035
-0.771295
-0.748828
-0.73708
-0.722849
-0.978536
-0.984757
-0.990426
-0.98499
-0.973537
-0.959614
-0.946212
-0.936222
-0.923524
-0.912201
-0.901278
-0.894273
-0.897363
-0.89488
-0.881349
-0.874252
-0.861373
-0.830789
-0.789246
-0.765168
-0.751712
-0.742582
-0.731226
-0.982994
-0.989515
-0.989564
-0.980539
-0.972432
-0.963722
-0.954937
-0.938992
-0.925524
-0.91513
-0.909109
-0.905305
-0.901115
-0.892636
-0.875158
-0.854264
-0.833347
-0.801618
-0.778275
-0.763951
-0.754788
-0.75157
-0.752049
-0.988458
-0.991498
-0.989686
-0.982155
-0.975945
-0.964872
-0.946043
-0.934733
-0.926963
-0.919981
-0.913632
-0.90077
-0.885811
-0.871226
-0.858188
-0.8457
-0.824815
-0.802363
-0.786979
-0.779486
-0.778613
-0.805113
-0.847321
-0.991253
-0.992827
-0.991048
-0.986409
-0.980782
-0.964313
-0.948883
-0.939529
-0.932714
-0.923945
-0.912232
-0.894682
-0.880595
-0.86865
-0.856549
-0.844192
-0.833075
-0.827452
-0.829801
-0.840809
-0.873874
-0.934606
-0.965263
-0.992916
-0.993994
-0.992653
-0.988413
-0.981512
-0.96701
-0.957254
-0.952472
-0.946523
-0.935412
-0.920672
-0.901921
-0.892267
-0.888777
-0.888598
-0.891996
-0.895403
-0.914911
-0.936033
-0.957407
-0.981534
-0.996204
-0.99749
-0.994022
-0.995304
-0.994078
-0.991025
-0.985354
-0.974465
-0.966503
-0.960273
-0.953374
-0.939896
-0.927052
-0.920738
-0.922145
-0.943704
-0.958452
-0.966566
-0.972083
-0.982195
-0.989624
-0.995695
-0.998541
-0.999247
-0.999459
-0.995152
-0.995831
-0.994244
-0.991644
-0.987193
-0.978547
-0.972684
-0.968267
-0.957805
-0.947402
-0.943594
-0.952483
-0.972957
-0.986332
-0.991578
-0.993846
-0.995902
-0.99771
-0.997
-0.99685
-0.997522
-0.99843
-0.998972
-0.995443
-0.995608
-0.993731
-0.991086
-0.987073
-0.980416
-0.97591
-0.971521
-0.961293
-0.957042
-0.963122
-0.981904
-0.991658
-0.996142
-0.996883
-0.996912
-0.995944
-0.995288
-0.995076
-0.99543
-0.996685
-0.997824
-0.998543
-0.99531
-0.993869
-0.991707
-0.989225
-0.986158
-0.982216
-0.979722
-0.97232
-0.96618
-0.966883
-0.978253
-0.990229
-0.994668
-0.996309
-0.996705
-0.996659
-0.9957
-0.994906
-0.995261
-0.996727
-0.997918
-0.998478
-0.999059
-0.994772
-0.990299
-0.988193
-0.986541
-0.984997
-0.982697
-0.979478
-0.973045
-0.970208
-0.971721
-0.981159
-0.99121
-0.99438
-0.995179
-0.995356
-0.995243
-0.995125
-0.993789
-0.997492
-0.99898
-0.99954
-0.999714
-0.999826
-0.993707
-0.987409
-0.985775
-0.985197
-0.984963
-0.983241
-0.979841
-0.974421
-0.973129
-0.977631
-0.984203
-0.992689
-0.995877
-0.997362
-0.99781
-0.998608
-0.999172
-0.997786
-0.999178
-0.999681
-0.999863
-0.999924
-0.999952
-0.993497
-0.986055
-0.984957
-0.985023
-0.98524
-0.98409
-0.979917
-0.976637
-0.977125
-0.981101
-0.986703
-0.995233
-0.997746
-0.998816
-0.999162
-0.999367
-0.999628
-0.999729
-0.999798
-0.999892
-0.99995
-0.999975
-0.999991
-0.993606
-0.986122
-0.984964
-0.985288
-0.986017
-0.985628
-0.981464
-0.980092
-0.982647
-0.98493
-0.987205
-0.995499
-0.99741
-0.998553
-0.999218
-0.999508
-0.999676
-0.999839
-0.999914
-0.999957
-0.999978
-0.999991
-0.999996
-0.99383
-0.98638
-0.985283
-0.986255
-0.987642
-0.988038
-0.984217
-0.986183
-0.989784
-0.990853
-0.987405
-0.995366
-0.997219
-0.998679
-0.999329
-0.999658
-0.999865
-0.999931
-0.999958
-0.999978
-0.999988
-0.999996
-0.999999
-0.993844
-0.98684
-0.986141
-0.988201
-0.990295
-0.991326
-0.987785
-0.993344
-0.995491
-0.996476
-0.991122
-0.995754
-0.998146
-0.999279
-0.999773
-0.999889
-0.999933
-0.999966
-0.999983
-0.999991
-0.999996
-0.999999
-1
-0.993593
-0.987452
-0.987559
-0.990609
-0.993017
-0.993842
-0.992084
-0.997117
-0.998457
-0.999101
-0.997234
-0.998462
-0.999439
-0.999795
-0.999934
-0.999971
-0.999982
-0.99999
-0.999995
-0.999998
-0.999999
-1
-1
-0.993086
-0.988163
-0.989344
-0.992829
-0.994838
-0.995331
-0.994624
-0.997959
-0.999125
-0.999745
-0.999548
-0.999743
-0.999895
-0.999961
-0.999986
-0.999993
-0.999996
-0.999997
-0.999999
-1
-1
-1
-1
-0.992645
-0.988926
-0.990977
-0.994334
-0.996093
-0.996528
-0.996389
-0.998375
-0.999295
-0.999655
-0.999835
-0.999923
-0.999967
-0.999988
-0.999996
-0.999998
-0.999999
-0.999999
-1
-1
-1
-1
-1
-0.992522
-0.989748
-0.992258
-0.995227
-0.996887
-0.997441
-0.997604
-0.998719
-0.999354
-0.999676
-0.999866
-0.99995
-0.999984
-0.999996
-0.999999
-0.999999
-1
-1
-1
-1
-1
-1
-1
-0.992586
-0.99036
-0.993382
-0.995739
-0.997282
-0.997966
-0.998285
-0.999012
-0.9995
-0.999788
-0.999934
-0.999985
-0.999997
-0.999999
-1
-1
-1
-1
-1
-1
-1
-1
-1
-0.992769
-0.990944
-0.993921
-0.995964
-0.997362
-0.998299
-0.998845
-0.9994
-0.99978
-0.999928
-0.999975
-0.999992
-0.999998
-1
-1
-1
-1
-1
-1
-1
-1
-1
-1
-0.993165
-0.991711
-0.994224
-0.996234
-0.997497
-0.998614
-0.999344
-0.999656
-0.999852
-0.999951
-0.999987
-0.999997
-0.999999
-1
-1
-1
-1
-1
-1
-1
-1
-1
-1
-0.994141
-0.993085
-0.994696
-0.99654
-0.997919
-0.999039
-0.999639
-0.999843
-0.99994
-0.99998
-0.999995
-0.999999
-1
-1
-1
-1
-1
-1
-1
-1
-1
-1
-1
-0.996422
-0.995528
-0.996309
-0.997443
-0.998692
-0.99953
-0.999886
-0.999957
-0.999985
-0.999995
-0.999999
-1
-1
-1
-1
-1
-1
-1
-1
-1
-1
-1
-1
-0.998921
-0.998076
-0.998232
-0.99867
-0.999355
-0.99977
-0.999941
-0.999988
-0.999997
-0.999999
-1
-1
-1
-1
-1
-1
-1
-1
-1
-1
-1
-1
-1
-0.999819
-0.999293
-0.999302
-0.999486
-0.999804
-0.999931
-0.999983
-0.999996
-0.999999
-1
-1
-1
-1
-1
-1
-1
-1
-1
-1
-1
-1
-1
-1
-0.999977
-0.999798
-0.999777
-0.999835
-0.999954
-0.999982
-0.999996
-0.999999
-1
-1
-1
-1
-1
-1
-1
-1
-1
-1
-1
-1
-1
-1
-1
-0.999996
-0.999958
-0.999946
-0.99996
-0.999992
-0.999996
-0.999999
-1
-1
-1
-1
-1
-1
-1
-1
-1
-1
-1
-1
-1
-1
-1
-1
-1
-0.999995
-0.999989
-0.999992
-0.999999
-0.999999
-1
-1
-1
-1
-1
-1
-1
-1
-1
-1
-1
-1
-1
-1
-1
-1
-1
-1
-0.999999
-0.999998
-0.999999
-1
-1
-1
-1
-1
-1
-1
-1
-1
-1
-1
-1
-1
-1
-1
-1
-1
-1
-1
-1
-1
-1
-1
-1
-1
-1
-1
-1
-1
-1
-1
-1
-1
-1
-1
-1
-1
-1
-1
-1
-1
-1
0.0681059
0.0550073
0.0380915
0.0273584
0.100785
0.103973
0.106092
0.106896
0.157579
0.145036
0.119276
0.0830096
0.197851
0.166769
0.0980109
-0.0635726
-0.32279
-0.385683
-0.481934
-0.607766
-0.647584
-0.663458
-0.676837
-0.684324
-0.702721
-0.704151
-0.7042
-0.693119
-0.725308
-0.723647
-0.712147
-0.695424
-0.724783
-0.706973
-0.681334
-0.643557
-0.740775
-0.724922
-0.711027
-0.694553
-0.691793
-0.663434
-0.646178
-0.640221
-0.714172
-0.707966
-0.708669
-0.72008
-0.761517
-0.785694
-0.820589
-0.856986
-0.885089
-0.915323
-0.938439
-0.956604
-0.978774
-0.985492
-0.989581
-0.992509
-0.997704
-0.998609
-0.999058
-0.999405
-0.999719
-0.999835
-0.99991
-0.99995
-0.999589
-0.999821
-0.999908
-0.999952
-0.999263
-0.999662
-0.999819
-0.99994
-0.99966
-0.999894
-0.999936
-0.999978
-0.999911
-0.999963
-0.999974
-0.99999
-0.999967
-0.999985
-0.999988
-0.999995
-0.999992
-0.999994
-0.999995
-0.999997
-0.999998
-0.999999
-0.999999
-0.999999
-0.999999
-1
-1
-1
-1
-1
-1
-1
-1
-1
-1
-1
-1
-1
-1
-1
-1
-1
-1
-1
-1
-1
-1
-1
-1
-1
-1
-1
-1
-1
-1
-1
-1
-1
-1
-1
-1
-1
-1
-1
-1
-1
-1
-1
-1
-1
-1
-1
-1
-1
-1
-1
-1
-1
-1
-1
-1
-1
-1
-1
-1
-1
-1
-1
-1
-1
-1
-1
-1
-1
-1
-1
0.0138902
-0.259705
-0.331531
-0.35105
-0.343069
-0.352884
-0.283849
-0.502615
-0.258457
-0.118532
-0.0459659
-0.0590374
-0.0781115
-0.128778
-0.183132
-0.144137
0.0151105
0.220492
0.274364
0.105555
0.0579873
0.036509
0.180776
0.0370032
0.0597805
0.0332872
-0.065784
0.039004
0.104189
0.186769
-0.166094
-0.188248
-0.212662
-0.246553
-0.31101
-0.218241
0.082398
0.248172
0.011078
-0.267949
-0.316279
-0.0951596
-0.347835
-0.250057
-0.106696
-0.242481
-0.280645
-0.187859
-0.0705307
-0.353046
-0.291794
-0.197689
-0.265506
-0.421483
-0.294871
0.00347702
0.207418
-0.356826
-0.511068
-0.520551
-0.529864
-0.672009
-0.598371
-0.444085
-0.40252
-0.342461
-0.2986
-0.17701
-0.115443
-0.0927112
-0.14551
-0.354729
-0.489466
-0.318467
-0.0529315
0.0534776
-0.679689
-0.697395
-0.633384
-0.545376
-0.482501
-0.428566
-0.344256
-0.23658
-0.138592
-0.0667523
-0.00435627
-0.0217003
-0.112857
-0.349247
-0.468462
-0.453435
-0.167335
0.0651756
0.115206
-0.679146
-0.595578
-0.501525
-0.434505
-0.374297
-0.306495
-0.205736
-0.104125
-0.0348191
-0.00453064
0.00681893
-0.0392448
-0.233557
-0.38952
-0.434343
-0.292474
-0.0477555
0.145615
0.204594
-0.654775
-0.569872
-0.496298
-0.441429
-0.381873
-0.304739
-0.213624
-0.133367
-0.0699997
-0.0380327
-0.0216623
-0.0204771
-0.0564095
-0.171794
-0.303694
-0.333716
-0.130184
0.0977983
0.186457
-0.665744
-0.591775
-0.506034
-0.462536
-0.431203
-0.395175
-0.359349
-0.319656
-0.267303
-0.214022
-0.167954
-0.0913057
-0.0441528
-0.0866694
-0.109189
-0.128979
-0.086155
-0.00407413
0.0532171
-0.588812
-0.518317
-0.4828
-0.474173
-0.473287
-0.473342
-0.445475
-0.430449
-0.454808
-0.479386
-0.413535
-0.288858
-0.206835
-0.112345
-0.0680911
-0.157565
-0.210134
-0.207966
-0.269828
-0.665923
-0.606525
-0.560199
-0.569783
-0.572712
-0.605259
-0.572945
-0.574517
-0.647663
-0.702321
-0.648694
-0.605212
-0.569019
-0.493985
-0.452713
-0.593608
-0.63582
-0.619318
-0.661322
-0.640499
-0.679145
-0.747621
-0.765785
-0.793498
-0.806799
-0.788567
-0.79318
-0.816693
-0.868332
-0.823164
-0.811343
-0.815376
-0.803304
-0.807266
-0.855308
-0.860518
-0.865747
-0.868911
-0.757323
-0.838004
-0.886157
-0.894055
-0.90534
-0.909272
-0.89374
-0.912239
-0.917809
-0.943299
-0.92063
-0.930179
-0.935375
-0.931601
-0.936495
-0.946984
-0.94293
-0.950065
-0.951377
-0.89623
-0.935347
-0.949004
-0.956797
-0.959683
-0.962433
-0.956884
-0.968026
-0.967736
-0.981674
-0.970164
-0.98212
-0.984439
-0.981247
-0.980914
-0.97683
-0.975025
-0.979824
-0.981194
-0.971478
-0.980013
-0.982999
-0.981561
-0.984704
-0.986572
-0.988738
-0.990557
-0.988754
-0.99477
-0.991035
-0.995784
-0.997102
-0.995078
-0.991886
-0.987102
-0.986749
-0.989915
-0.990993
-0.995424
-0.996084
-0.996413
-0.995064
-0.995938
-0.995477
-0.996388
-0.99712
-0.99671
-0.998476
-0.998362
-0.999251
-0.999435
-0.998342
-0.994554
-0.99104
-0.991926
-0.993903
-0.994283
-0.999642
-0.999717
-0.999481
-0.999141
-0.999491
-0.999007
-0.998791
-0.999277
-0.998931
-0.999378
-0.999772
-0.999872
-0.999803
-0.998924
-0.995555
-0.992915
-0.995209
-0.996301
-0.995675
-0.99998
-0.999992
-0.999935
-0.999857
-0.999906
-0.999832
-0.999701
-0.999878
-0.999745
-0.999658
-0.999933
-0.999968
-0.999907
-0.999107
-0.995677
-0.99419
-0.997186
-0.998156
-0.996488
-0.999987
-0.999998
-0.99999
-0.999978
-0.999982
-0.999976
-0.999956
-0.999976
-0.999955
-0.999845
-0.999962
-0.999988
-0.999988
-0.999682
-0.996748
-0.995922
-0.998371
-0.999137
-0.997058
-0.999991
-0.999999
-0.999998
-0.999998
-0.999997
-0.999997
-0.999997
-0.999997
-0.999992
-0.999945
-0.999982
-0.999994
-0.999997
-0.99998
-0.999309
-0.998121
-0.999202
-0.999597
-0.997473
-0.999995
-1
-1
-1
-1
-1
-1
-0.999999
-0.999998
-0.999983
-0.999995
-0.999998
-0.999999
-0.999995
-0.999831
-0.999213
-0.999714
-0.999781
-0.997755
-0.999997
-1
-1
-1
-1
-1
-1
-1
-0.999999
-0.999996
-0.999999
-1
-1
-0.999998
-0.999837
-0.999674
-0.999909
-0.999862
-0.997968
-0.999998
-1
-1
-1
-1
-1
-1
-1
-1
-1
-1
-1
-1
-1
-0.999987
-0.999968
-0.999981
-0.999891
-0.998149
-0.999999
-1
-1
-1
-1
-1
-1
-1
-1
-1
-1
-1
-1
-1
-0.999999
-0.999998
-0.99999
-0.999891
-0.998291
-1
-1
-1
-1
-1
-1
-1
-1
-1
-1
-1
-1
-1
-1
-1
-0.999999
-0.99999
-0.999884
-0.998445
-1
-1
-1
-1
-1
-1
-1
-1
-1
-1
-1
-1
-1
-1
-1
-0.999999
-0.999987
-0.99988
-0.998621
-1
-1
-1
-1
-1
-1
-1
-1
-1
-1
-1
-1
-1
-1
-1
-0.999999
-0.999986
-0.999882
-0.998761
-1
-1
-1
-1
-1
-1
-1
-1
-1
-1
-1
-1
-1
-1
-1
-0.999999
-0.999988
-0.99991
-0.998875
-1
-1
-1
-1
-1
-1
-1
-1
-1
-1
-1
-1
-1
-1
-1
-0.999998
-0.999985
-0.999932
-0.998972
-1
-1
-1
-1
-1
-1
-1
-1
-1
-1
-1
-1
-1
-1
-1
-0.999998
-0.999988
-0.999948
-0.999048
-1
-1
-1
-1
-1
-1
-1
-1
-1
-1
-1
-1
-1
-1
-1
-0.999998
-0.99999
-0.999966
-0.999119
-1
-1
-1
-1
-1
-1
-1
-1
-1
-1
-1
-1
-1
-1
-1
-0.999998
-0.999995
-0.999979
-0.999181
-1
-1
-1
-1
-1
-1
-1
-1
-1
-1
-1
-1
-1
-1
-1
-0.999999
-0.999998
-0.999988
-0.999266
-1
-1
-1
-1
-1
-1
-1
-1
-1
-1
-1
-1
-1
-1
-1
-1
-0.999999
-0.999993
-0.999339
-1
-1
-1
-1
-1
-1
-1
-1
-1
-1
-1
-1
-1
-1
-1
-1
-1
-0.999995
-0.999022
-1
-1
-1
-1
-1
-1
-1
-1
-1
-1
-1
-1
-1
-1
-1
-1
-1
-0.999999
-0.999441
-1
-1
-1
-1
-1
-1
-1
-1
-1
-1
-1
-1
-1
-1
-1
-1
-1
-0.999999
-0.999493
-1
-1
-1
-1
-1
-1
-1
-1
-1
-1
-1
-1
-1
-1
-1
-1
-1
-0.999999
-0.999582
-1
-1
-1
-1
-1
-1
-1
-1
-1
-1
-1
-1
-1
-1
-1
-1
-0.999999
-0.999999
-0.999633
-1
-1
-1
-1
-1
-1
-1
-1
-1
-1
-1
-1
-1
-1
-1
-1
-1
-0.999999
-0.999766
-1
-1
-1
-1
-1
-1
-1
-1
-1
-1
-1
-1
-1
-1
-1
-1
-0.999999
-0.999999
-0.999858
-1
-1
-1
-1
-1
-1
-1
-1
-1
-1
-1
-1
-1
-1
-1
-1
-1
-0.999999
-0.999537
-1
-1
-1
-1
-1
-1
-1
-1
-1
-1
-1
-1
-1
-1
-1
-1
-1
-0.999999
-0.999746
)
;

boundaryField
{
    leftWall
    {
        type            zeroGradient;
    }
    rightWall
    {
        type            zeroGradient;
    }
    lowerWall
    {
        type            zeroGradient;
    }
    atmosphere
    {
        type            zeroGradient;
    }
    defaultFaces
    {
        type            empty;
    }
}


// ************************************************************************* //
