/*--------------------------------*- C++ -*----------------------------------*\
| =========                 |                                                 |
| \\      /  F ield         | foam-extend: Open Source CFD                    |
|  \\    /   O peration     | Version:     4.1                                |
|   \\  /    A nd           | Web:         http://www.foam-extend.org         |
|    \\/     M anipulation  |                                                 |
\*---------------------------------------------------------------------------*/
FoamFile
{
    version     2.0;
    format      ascii;
    class       volScalarField;
    location    "0.9";
    object      p;
}
// * * * * * * * * * * * * * * * * * * * * * * * * * * * * * * * * * * * * * //

dimensions      [1 -1 -2 0 0 0 0];

internalField   nonuniform List<scalar> 
2268
(
2068.41
2019.72
1851.93
1985.89
1852.25
2034.35
1781.52
1821.89
1804.71
814.298
806.061
781.066
827.99
836.153
837.962
846.06
850.159
846.815
849.709
840.146
841.509
886.682
1833.88
2135.31
2058.49
2027.09
2268.69
1786.06
1460.33
994.42
886.441
907.683
950.665
749.202
719.306
771.107
775.722
778.854
786.544
790.472
787.924
790.74
782.134
781.698
781.265
837.861
2222.81
2212.77
2254.31
2178.9
2097.12
1509.35
1185.74
1149.5
1325.6
1878.8
881.465
657.659
690.502
743.2
722.479
729.461
733.79
729.643
731.949
725.065
725.784
722.119
739.381
2222.59
2192.77
2203.12
1948.48
2058.01
1586.42
1380.53
1373.17
1290.76
851.68
673.325
618.928
638.648
706.597
648.461
675.608
672.316
671.513
672.417
668.083
667.227
661.571
677.477
2179.15
2163.33
2160.79
2093.42
1807.12
1534.31
1356.15
1098.8
782.268
645.809
552.01
590.012
620.699
765.566
674.727
636.112
620.606
611.699
614.513
610.646
607.718
598.487
622.407
2146.68
2081.59
1958.19
1826.26
2040.29
1732.14
1707.57
1184.22
975.291
755.509
516.635
662.86
809.212
1492.66
820.481
712.621
569.022
561.395
557.945
558.063
547.509
547.021
562.802
2051.36
1770.03
1801.36
1680.11
2100.82
1960.77
1902.77
1369.4
1294.36
1369.98
764.365
1203.52
1030.39
1823.9
1046.18
842.27
633.782
600.759
589.132
539.229
524.598
527.466
561.621
1935.17
1061.58
1016.82
1174.84
1821.84
1912.66
2086.37
1754.98
1673.49
2061.4
1542.84
1944.65
1306.08
1817.58
1339.61
1131.47
1135.5
1106.59
1149.25
746.799
806.488
968.822
893.536
2642.97
2751.44
2706.65
2508.2
2621.52
2645.95
2565.41
2236.94
2231.53
2221.42
2098.92
2208.19
2223.94
2246.84
2211.09
2385.38
2351.97
2405.77
2521.54
2586.36
2761.75
2707.41
2445.72
2649.12
2643.3
2405.16
2202.09
2172.34
2295.4
2297.23
2175.64
2458.86
2507.82
2331.56
2492.63
2528.36
2488.23
2527.91
2408.92
2635.93
2662.44
2463.47
2560.7
2541.99
2433.04
2312.96
2372.11
2424.32
2418.57
2439.53
2432.73
2378.69
2476.35
2547.56
2595.14
2512.75
2492.01
2327.72
2518.21
2604.66
2457.38
2444.12
2547.82
2439.62
2295.26
2472.31
2162.58
2075.86
2028.42
2056.53
2052.63
2313.07
2482.26
2500.65
2505.87
2445.19
2231.4
2505.27
2556.86
2327.93
2312.52
2317.28
2297.42
2417.01
2281.46
1937.57
1762.33
1715.82
1866.03
2222.88
2343.08
2404.86
2473.07
2461.92
2419.17
2122.94
2423.98
2284.05
1893.71
1865.98
1766.45
2057.12
2310.95
2319.58
2165.36
1741.7
1608.59
1688.98
2285.51
2427.72
2468.36
2500.72
2420.21
2374.28
2056.59
2331.25
1947.32
1719.83
1599.99
1596.45
1722.04
1601.32
1868.63
2016.09
2128.83
1901.25
1645.76
2210.18
2366.42
2413.45
2462.82
2358.34
2331.48
1930.88
2119.51
1961.82
1863.23
1712.61
1563.79
1908.69
1308.45
1378.79
1646.01
1721.54
2324.08
2193.02
2237.8
2333.73
2343.54
2426.32
2384.76
2294.06
1926.12
996.353
632.122
918.897
1383.25
1676.91
2064.4
1850.5
1818.3
2181.06
2141.76
2203.58
2195.67
1761.67
1675.55
1709.48
1757.49
1844.3
1931.14
1713.25
1599.21
1962.5
2129.19
1810.36
849.583
907.977
1311.19
1751.75
1869.05
1840.3
1947.06
2035.92
2086.82
1831.25
2156.94
2022.1
1905.79
1952.67
2032.02
2103.72
2112.82
2095.24
2043.7
1999.97
1886.1
2118.27
1098.67
863.888
1144.72
1255.19
1363.12
1718.67
1339.32
1660.9
1835.9
2026.12
1553.96
2076.87
1916.35
1823.01
2015.47
2094.14
2108.61
2078.37
1978.09
1963.23
1990.04
1945.24
1960.09
692.491
1076.42
1128.59
911.646
647.689
1440.75
1714.74
1697.71
1575.16
1962.6
1197.8
2022.95
1928.77
1831.08
1955.9
1992.15
2116.79
1941.28
1842.04
1998.43
1949.34
1927.23
1777.35
561.21
990.504
834.837
927.912
522.976
800.85
1252.19
987.981
1061.74
1567.96
1522.85
2002.04
1974.22
1993.55
1883.39
1937.48
2069.83
2071.03
1826.03
1859.1
2010.91
1996.17
1791.74
478.656
557.54
247.37
544.179
240.974
182.436
431.107
569.331
799.576
1200.64
1260.61
1750.19
1934.84
1881.66
1616.14
1921.73
1855.54
1820.47
1847.8
1868.47
1741.79
1257.28
942.275
398.086
198.701
95.4718
139.496
96.236
98.2611
183.961
270.822
401.672
884.553
1103.89
1203.5
1329.61
1429.89
1256.36
1488.08
1286.21
1188.08
1235.55
1283.81
1022.01
723.389
643.971
267.943
108.967
74.37
73.6049
72.9262
74.2299
88.4993
103.289
101.126
429.617
1095.93
1299.17
700.645
729.835
931.793
1113.02
913.555
651.044
620.443
647.477
597.122
518.891
510.176
130.068
85.0083
67.9764
67.0247
65.0987
66.2554
67.6617
72.0483
81.3643
194.295
654.989
1129.37
366.525
335.054
615.242
696.381
560.921
443.938
445.768
465.034
483.855
473.833
442.649
71.1302
64.9438
65.3479
63.1701
63.3874
62.0541
60.9029
59.3529
64.4662
97.5737
254.712
691.494
178.179
276.9
349.031
354.632
347.287
336.662
372.425
393.689
433.362
455.946
423.502
62.0893
59.608
60.695
58.6708
60.0622
60.6418
62.1953
65.6385
79.0853
101.637
136.224
200.039
155.906
197.281
209.134
188.533
200.786
238.978
270.373
371.293
443.937
465.593
466.003
58.259
56.7835
58.1083
58.4763
62.7021
68.0917
72.7225
78.9177
87.6821
76.1148
96.3053
104.682
107.537
121.445
136.249
154.364
178.472
251.062
314.236
353.541
408.987
411.628
367.501
53.8286
51.9366
53.112
55.8221
58.3733
63.6701
70.3239
59.7521
68.5073
98.4071
80.6261
84.5287
87.028
77.107
140.121
167.961
201.908
305.541
330.313
336.693
384.377
405.473
365.649
51.1007
49.8733
49.5088
49.2128
55.1473
61.6999
69.6297
65.553
72.4799
73.4483
76.0367
97.5219
119.614
118.057
143.542
125.329
183.133
284.363
282.382
282.212
281.562
224.512
133.828
45.7248
45.3338
43.121
42.9042
46.0053
53.3521
59.7414
68.4528
77.1407
69.9498
62.433
88.4783
134.79
142.632
149.633
156.344
170.115
193.704
194.384
163.212
97.3372
23.8348
4.55302
41.9485
41.7721
40.9057
39.2079
39.0663
41.6587
43.9921
56.8855
62.4003
66.7849
32.2701
57.7277
111.681
101.194
94.7847
82.7871
77.9735
52.0153
28.669
12.514
-0.621365
-2.96
-2.51075
38.1775
37.7432
36.5092
33.9129
33.4513
34.6626
36.24
43.7677
58.5061
61.0163
37.7871
34.2489
42.8214
22.7109
13.0498
7.87853
5.02258
-2.32423
-1.31944
-1.73374
-2.84111
-2.85857
-3.0225
34.7736
35.6454
33.864
33.0684
31.027
30.2581
34.6558
28.2262
37.4962
35.7805
25.0845
17.0007
-0.909772
-2.3773
-2.00957
-2.64652
-3.57422
-2.67874
-2.98295
-2.99545
-3.26954
-3.26384
-3.40673
31.7169
33.4984
30.7894
31.8549
28.4037
24.3205
28.2057
26.9895
29.0295
20.4543
7.62556
-1.52533
-4.16019
-4.07119
-3.60642
-3.9109
-4.64721
-5.30603
-3.87653
-3.21937
-3.22024
-3.5796
-3.21535
26.5153
26.1519
25.8952
28.9774
26.2006
21.8621
20.4264
20.7978
21.2115
11.4648
1.10838
-4.67072
-4.43829
-4.30611
-4.63472
-5.05444
-5.69216
-5.97256
-5.44435
-4.42931
-4.11383
-3.81387
-3.68881
22.4498
23.5667
23.9102
25.8137
24.629
20.3745
18.7602
19.6353
14.9333
5.2321
0.62621
-4.69253
-4.59674
-4.84168
-5.25132
-5.41201
-5.72562
-5.42052
-5.25786
-4.77844
-4.38233
-4.12029
-3.85772
18.1724
18.2506
20.1505
20.2072
17.73
14.8173
15.415
14.4572
9.04156
3.45838
-4.03513
-6.62403
-5.6035
-5.53765
-5.76041
-5.86218
-6.15224
-5.58715
-5.23372
-4.92628
-4.60547
-4.32748
-4.44982
14.732
7.07466
15.3204
13.4329
10.0589
8.28588
5.6484
2.74392
0.163036
-4.37985
-6.626
-7.72489
-7.25605
-6.42767
-6.42381
-6.30956
-6.06142
-5.65751
-5.53957
-4.98378
-4.74498
-4.93309
-4.39153
12.7302
10.4737
3.2337
6.31153
6.53891
5.27379
-8.9529
-7.94761
-7.74669
-8.97493
-8.39518
-7.87901
-8.11863
-7.21658
-6.50762
-6.22664
-6.24151
-6.1077
-5.66015
-5.63332
-5.28089
-4.75542
-4.65397
9.53822
11.9035
7.47642
1.91099
-2.40008
-7.12975
-7.57737
-6.98464
-6.49247
-7.71157
-8.99029
-10.0542
-8.67184
-7.86068
-6.83048
-6.54371
-6.32896
-5.8507
-5.80747
-5.58867
-5.28553
-5.01902
-4.74007
3.60034
7.39757
5.90518
1.23483
-4.0771
-11.9147
-7.60106
-7.36321
-7.09331
-6.05447
-7.48405
-9.31363
-8.44792
-7.99709
-7.00638
-6.65888
-6.30842
-5.89631
-5.51752
-5.6787
-5.40115
-5.05452
-4.87112
-0.955948
2.14566
1.12955
-0.769584
-3.05675
-4.99095
-8.25918
-9.38495
-8.50963
-7.60914
-7.67095
-8.30032
-7.98978
-7.50268
-7.15051
-6.76789
-6.62046
-6.24173
-5.70801
-5.45422
-5.5935
-5.41699
-4.95422
3.56646
1.1767
-3.85389
-5.33803
-5.43084
-3.24383
-7.46104
-8.66664
-8.40805
-7.85452
-7.49815
-7.47808
-7.38534
-6.97449
-7.02795
-6.82127
-6.33489
-6.04237
-6.03642
-5.74817
-5.35971
-5.32109
-5.27352
1.42394
-2.37106
-6.27414
-7.05518
-6.76433
-5.3837
-7.24082
-8.4941
-8.10057
-7.75689
-7.41089
-7.14784
-7.06913
-6.88119
-6.70017
-6.41365
-6.10589
-6.20206
-5.85433
-5.55112
-5.52544
-5.51637
-5.25363
-4.7585
-5.16855
-6.17178
-6.37128
-6.7437
-6.21701
-6.81639
-7.77507
-7.66903
-7.53128
-7.24461
-7.20717
-7.0116
-6.73317
-6.553
-6.04548
-6.11457
-5.98241
-5.68699
-5.73037
-5.65923
-5.35386
-5.13986
-3.23074
-4.11649
-5.15567
-5.60347
-6.36972
-6.32138
-6.63812
-7.29695
-7.4985
-7.21157
-6.892
-7.18644
-6.96639
-6.72123
-6.51408
-6.17117
-6.036
-5.78119
-5.79289
-5.72902
-5.44213
-5.3574
-5.19196
-1.2085
-5.22232
-6.11032
-6.45171
-7.06774
-6.92811
-6.74304
-7.47873
-7.63229
-7.3835
-6.68199
-6.86791
-6.64507
-6.75931
-6.46193
-5.93431
-6.03485
-5.86111
-5.72185
-5.53965
-5.57273
-5.5405
-5.29475
-3.48711
-9.08105
-9.6355
-8.95758
-8.7077
-8.16645
-7.54306
-7.49688
-7.33321
-6.98466
-6.6633
-6.67411
-6.44979
-6.48149
-6.42635
-6.01138
-5.91635
-5.84689
-5.81289
-5.61573
-5.53351
-5.463
-5.39754
-5.49186
-8.24811
-10.2376
-10.4199
-9.41127
-8.45092
-7.91148
-7.39352
-6.92258
-6.72947
-6.53961
-6.49866
-6.26526
-6.14713
-6.36821
-6.07533
-5.96613
-5.88402
-5.64161
-5.66713
-5.58925
-5.34247
-5.41265
-4.97126
-6.40578
-7.99115
-8.26186
-8.15016
-7.52657
-7.78362
-7.59907
-6.4444
-6.42722
-6.26541
-6.47981
-6.08042
-6.0303
-6.06888
-5.88261
-5.83639
-5.86276
-5.64234
-5.70115
-5.52491
-5.51173
-5.47762
-2.70265
-4.80449
-5.85684
-6.47484
-6.71102
-6.82475
-6.45139
-7.01491
-6.28414
-6.39924
-6.66524
-6.11881
-6.00133
-5.94536
-5.91061
-5.83277
-5.76143
-5.90095
-5.65459
-5.73483
-5.62713
-5.52313
-5.59878
-3.08174
-4.04459
-4.77939
-5.16026
-5.44375
-5.68954
-6.3437
-6.23232
-6.21883
-6.05926
-5.85205
-5.8214
-5.87567
-5.86255
-5.83471
-5.72819
-5.71292
-5.73339
-5.72767
-5.71352
-5.5891
-5.6172
-5.57149
-3.70682
-3.94819
-4.33068
-4.96003
-5.33164
-5.64874
-5.6321
-5.72327
-5.85691
-5.66991
-6.04262
-5.82002
-6.00625
-5.68423
-5.84987
-5.83458
-5.62569
-5.76708
-5.77136
-5.69474
-5.58966
-5.66348
-5.55692
-4.09494
-3.64843
-4.22946
-4.97353
-4.90543
-5.24019
-5.32856
-5.44807
-5.60479
-5.59036
-5.87031
-5.68062
-5.59882
-5.86787
-5.83674
-5.65829
-5.77647
-5.65232
-5.78839
-5.64253
-5.66755
-5.57548
-5.58985
-4.66032
-4.80077
-4.86359
-4.6376
-4.72294
-5.11228
-5.35274
-5.30355
-5.67789
-5.7121
-5.87516
-5.66219
-5.67
-5.87104
-5.6762
-5.74698
-5.63485
-5.79856
-5.71818
-5.66424
-5.66874
-5.64651
-5.70519
-5.01513
-5.15767
-4.96387
-4.83451
-5.0298
-5.4282
-5.74202
-5.72373
-5.70993
-5.71281
-5.67998
-5.7085
-5.70484
-5.71865
-5.81076
-5.71742
-5.8149
-5.72742
-5.72994
-5.69623
-5.72884
-5.70913
-5.68274
-5.15101
-5.66178
-5.0913
-5.1558
-5.65215
-5.52026
-5.43097
-5.45907
-5.61266
-5.64621
-5.62952
-5.74049
-5.67643
-5.72193
-5.63768
-5.73723
-5.63926
-5.69708
-5.71664
-5.70933
-5.7456
-5.72517
-5.72774
2099.37
2091.96
1921.26
1846.35
2120.77
2130.02
2073.09
2055.69
1984.37
2020.08
2066
2098.89
1845.4
1891.52
2028.87
2020.99
1587.26
1460.74
1280.37
998.271
766.457
713.087
727.436
760.853
600.251
618.139
638.672
670.095
525.557
538.661
588.674
635.702
517.132
598.737
695.156
788.109
444.96
479.993
530.353
581.161
553.265
624.417
653.448
654.008
436.532
451.942
446.821
405.028
325.261
259.509
179.833
116.253
75.2031
38.8809
17.944
6.44147
-0.723345
-1.87109
-2.31454
-2.72441
-2.79054
-2.82902
-2.85911
-2.90711
-3.12022
-3.12076
-3.15972
-3.16891
-3.39693
-3.35081
-3.30122
-3.12282
-3.24798
-3.29054
-3.37943
-3.31784
-3.67909
-3.57446
-3.50857
-3.45787
-3.75962
-3.71197
-3.69451
-3.71822
-4.34379
-4.05456
-4.11095
-3.9412
-4.53583
-4.51555
-4.39233
-4.38146
-4.5893
-4.59777
-4.54346
-4.46827
-4.60758
-4.50479
-4.5525
-4.64865
-4.88085
-4.78032
-4.64099
-4.53143
-4.90311
-4.83255
-4.74413
-4.68531
-5.12193
-5.08539
-5.05779
-4.95522
-5.11965
-5.13557
-5.0513
-4.99498
-5.21114
-5.17218
-5.13022
-5.09364
-5.19574
-5.07934
-5.05104
-5.01456
-5.28294
-5.24987
-5.23549
-5.25007
-5.34204
-5.33192
-5.24234
-5.18804
-5.30202
-5.29869
-5.32693
-5.32049
-5.46947
-5.41625
-5.35118
-5.33206
-5.43645
-5.49076
-5.47689
-5.4335
-5.5622
-5.53284
-5.4619
-5.49831
-5.58402
-5.58995
-5.58894
-5.56255
-5.52006
-5.52546
-5.51899
-5.52198
-5.65671
-5.68081
-5.6545
-5.66764
-5.6746
-5.65019
-5.66335
-5.65266
-5.75535
-5.76471
-5.76216
-5.77681
2246.65
2066.89
1955.15
1926.01
1918.54
1911.59
2067.87
1544.58
2153.15
2340.56
2399.64
2330.42
2325.99
2216.19
2186.05
2216.18
2354.91
2235.13
2209.91
2235.82
2275.39
2223.22
2155.45
2259.06
2279.51
2307.89
2291.15
2324.52
2296.48
2231.83
2201.6
2158.21
2070.1
2015.6
1874.22
2082.28
2310.68
2159.15
2139.97
1974.33
1842.67
2124.83
1797.03
2042.08
2237.75
2077.85
2014.78
2154.49
2249.15
1842.05
1945.01
2044.6
1924.98
1573.06
1909.92
2236.91
2135.24
1705.38
1362.47
1344.86
1248.99
937.299
1243.09
1635.09
1726.09
1909.77
1940.05
2156.89
2200.45
2141.41
2002.56
1658.63
1340.01
1805.78
2218.46
2237.44
831.082
815.578
1017.05
1268.75
1436.66
1627.96
1841.6
2075.72
2147.58
2215.29
2183.81
2145.26
1970.2
1557.45
1384.44
1479.64
1987.31
2176.5
2146.56
775.549
1031.03
1295.09
1477.88
1663.24
1836.06
1999.76
2136.49
2081.56
2025.86
1982.45
1987.43
1751.33
1496.37
1411.81
1772.35
2005.87
1939.61
1931.85
757.625
1009.18
1248.26
1406.67
1555.58
1720
1837.74
1922.45
1990.98
1855.96
1851.36
2020.29
1998.52
1815.64
1665.33
1619.08
1896.17
1901.34
1840.23
639.43
871.292
1210.17
1271.09
1379.43
1421.98
1510.87
1601.68
1750.85
1738.26
1729.46
1939.09
1892.68
1863.18
1841.59
1871.77
1863.3
1922.49
1859.84
898.214
1069.2
1167.79
1194.3
1198.06
1134.4
1204.24
1312.66
1212.54
1092.76
1221.48
1618.69
1677.41
1746.91
1839
1712.5
1580.06
1616.22
1481.36
580.502
798.659
868.742
828.885
853.433
738.735
836.076
841.571
598.427
459.178
613.46
757.598
839.835
1020.17
1097.86
692.247
575.583
625.845
510.542
635.022
508.54
326.564
320.394
261.223
227.357
265.137
251.226
188.103
102.964
163.701
205.523
183.21
209.378
197.529
116.765
108.844
104.865
98.5538
326.023
149.18
70.3733
73.139
63.2608
57.1082
74.0676
48.9698
46.1068
20.0878
36.0461
29.2932
20.3784
24.0373
20.9465
18.4897
21.577
19.0527
17.7417
63.9327
27.0526
18.1328
14.0895
13.3697
10.4337
12.9391
6.27868
6.65714
0.0881964
2.34291
-0.135655
0.188899
2.21541
4.32917
5.82746
5.96917
5.54639
4.96338
0.656981
-0.175255
-0.56912
0.31044
-0.605363
-1.14292
-0.465977
-0.906486
-1.24085
-1.69092
-1.15545
-1.56616
-1.56909
-0.617384
0.748095
2.30672
2.20516
1.84979
2.3827
-3.02739
-2.55906
-2.34629
-2.30399
-2.56407
-2.4592
-2.4815
-2.68287
-2.29111
-2.1186
-2.07941
-1.86404
-1.81496
-1.10286
-0.257164
0.143523
0.646881
-0.355271
0.652832
-2.92286
-2.87094
-2.9899
-2.80679
-2.66369
-2.87931
-2.66346
-2.78713
-2.61943
-2.60049
-2.3094
-2.01462
-2.04575
-1.85198
-1.67228
-2.68433
-1.92065
-1.73355
-1.17525
-3.04081
-2.95497
-2.99045
-2.85245
-2.80256
-2.65291
-2.84993
-2.55176
-2.47171
-2.4784
-2.3728
-2.27156
-2.24558
-2.22188
-2.0446
-3.21848
-2.52085
-2.5064
-1.92656
-3.18028
-3.12351
-3.01449
-3.12862
-2.99457
-2.88005
-2.72709
-2.76362
-2.73707
-2.72614
-2.5762
-2.47471
-2.48667
-2.52408
-3.19115
-2.45434
-2.58784
-2.69002
-2.05822
-3.31025
-3.23795
-3.17906
-3.03612
-3.01943
-2.98247
-2.97681
-2.90016
-2.86991
-2.78959
-2.79995
-2.68716
-2.64984
-2.74908
-2.80449
-2.76971
-2.57009
-2.7719
-2.08772
-3.33839
-3.37064
-3.24358
-3.29266
-3.43197
-3.13682
-3.03711
-2.98573
-2.9552
-2.94824
-2.95133
-2.92257
-2.91303
-2.9347
-2.93104
-3.19568
-2.83486
-2.85423
-2.39352
-3.88023
-3.56431
-3.73201
-3.48416
-3.585
-3.31157
-3.45865
-3.25687
-3.28551
-3.16583
-3.16061
-3.01793
-3.0762
-3.03982
-3.15937
-3.04758
-3.10753
-3.00324
-2.75972
-3.95513
-3.80065
-3.71873
-3.67389
-3.50328
-3.77093
-3.59796
-3.47619
-3.44746
-3.41973
-3.29755
-3.31645
-3.21804
-3.11087
-3.12384
-2.98048
-3.13598
-3.06303
-2.92747
-4.25085
-4.05295
-3.96132
-3.82143
-3.75783
-3.83259
-3.54518
-3.55772
-3.45461
-3.39244
-3.44927
-3.32816
-3.35786
-3.3537
-3.25035
-3.20865
-3.16644
-3.18776
-3.05965
-4.29139
-4.21914
-4.07763
-3.99771
-3.83367
-3.73192
-3.75741
-3.72541
-3.69238
-3.6108
-3.59553
-3.52773
-3.48732
-3.45631
-3.36376
-3.34029
-3.31143
-3.31829
-3.2406
-4.50829
-4.30609
-4.24695
-4.19247
-4.01176
-3.93884
-3.78152
-3.75973
-3.79875
-3.68352
-3.71459
-3.65955
-3.56871
-3.48521
-3.47045
-3.35405
-3.37962
-3.45613
-3.37891
-4.49218
-4.61532
-4.12032
-4.29848
-4.16986
-4.14032
-4.29801
-4.20515
-3.98532
-3.88336
-3.76997
-3.82184
-3.8025
-3.92335
-3.73274
-3.83669
-3.46674
-3.61567
-3.53992
-4.69762
-4.75422
-4.62761
-4.4048
-4.27067
-4.23196
-4.33042
-4.11512
-4.24024
-4.3286
-4.16875
-3.95844
-3.9962
-4.12862
-4.028
-3.94791
-3.92593
-3.79157
-3.76064
-4.75535
-4.58779
-4.66647
-4.55743
-4.61261
-4.37365
-4.19296
-4.26713
-4.09056
-4.21774
-4.04568
-4.27358
-4.08165
-3.98117
-4.10258
-4.13695
-3.99533
-3.92028
-3.91206
-4.91372
-4.80959
-4.83429
-4.69637
-4.60894
-4.5104
-4.40918
-4.39139
-4.35544
-4.43484
-4.25341
-4.19048
-4.09477
-4.11837
-4.01429
-4.13002
-4.14836
-4.03799
-3.99737
-4.98791
-4.84973
-4.6819
-4.8175
-4.7357
-4.60757
-4.46012
-4.38066
-4.40842
-4.34299
-4.57541
-4.39063
-4.24922
-4.18311
-4.23943
-4.21055
-4.2565
-4.16167
-4.18324
-5.01144
-4.89507
-4.82956
-4.85863
-4.7025
-4.94292
-4.63442
-4.77112
-4.59574
-4.56258
-4.59144
-4.56282
-4.63711
-4.70352
-4.38657
-4.40431
-4.38139
-4.32604
-4.29114
-5.14521
-5.12814
-4.96987
-4.91447
-4.88544
-4.76484
-4.98263
-4.77397
-4.72896
-4.72073
-4.86831
-4.83217
-4.72659
-4.66252
-4.5316
-4.51021
-4.55142
-4.39604
-4.20731
-5.14891
-5.0219
-5.11117
-4.99902
-4.93797
-4.94322
-4.79318
-4.94656
-4.82525
-4.75307
-4.62014
-4.60263
-4.74839
-4.6248
-4.92974
-4.73293
-4.63484
-4.67961
-4.90418
-5.33091
-5.20706
-5.13939
-5.08514
-5.04098
-5.00696
-4.98046
-4.81113
-4.88961
-4.90088
-4.83143
-4.84184
-4.89632
-4.8509
-4.85814
-4.87805
-4.94376
-5.05547
-4.93022
-5.25181
-5.29795
-5.36718
-5.18674
-5.11695
-5.11383
-5.07582
-5.01245
-4.94018
-4.96804
-4.93055
-4.93818
-4.96803
-5.00362
-5.11677
-5.09986
-5.17051
-5.14235
-5.03007
-5.46144
-5.3339
-5.25394
-5.43134
-5.21407
-5.17985
-5.15984
-5.13426
-5.05352
-5.09314
-5.08968
-5.08419
-5.11627
-5.06246
-4.9285
-5.25499
-4.93004
-5.27205
-5.06265
-5.50017
-5.52856
-5.39177
-5.30592
-5.33911
-5.45225
-5.30482
-5.2873
-5.33841
-5.25548
-5.23178
-5.19495
-5.17113
-5.08618
-5.02981
-5.04756
-5.12235
-5.03694
-5.12639
-5.48284
-5.53165
-5.45909
-5.41856
-5.60553
-5.33138
-5.41121
-5.38607
-5.41805
-5.37588
-5.37133
-5.35335
-5.37255
-5.50383
-5.41592
-5.34119
-5.28603
-5.26843
-5.30907
-5.54475
-5.59964
-5.52303
-5.60474
-5.43449
-5.50465
-5.51206
-5.49224
-5.48517
-5.48679
-5.47029
-5.48581
-5.45926
-5.49758
-5.42042
-5.29542
-5.39212
-5.36396
-5.38029
-5.6581
-5.55826
-5.68919
-5.65097
-5.6069
-5.55655
-5.5577
-5.52102
-5.55052
-5.57237
-5.51181
-5.57717
-5.61336
-5.66142
-5.71972
-5.83873
-5.59202
-5.59612
-5.65975
-5.77008
-5.65238
-5.7561
-5.72312
-5.69524
-5.8569
-5.67666
-5.91013
-5.67788
-5.68789
-5.9725
-5.66739
-5.72687
-5.84432
-5.90958
-5.88818
-5.80004
-6.15194
-5.9478
-5.7119
-5.81987
-5.74001
-5.75969
-5.91839
-5.72915
-5.98299
-5.79825
-6.01216
-6.03044
-5.8833
-6.05353
-6.08088
-5.88024
-5.86499
-5.91289
-6.18943
-6.01065
-6.18092
)
;

boundaryField
{
    leftWall
    {
        type            calculated;
        value           nonuniform List<scalar> 
50
(
2068.41
2135.31
2222.81
2222.59
2179.15
2146.68
2051.36
1935.17
1926.12
1810.36
1098.67
692.491
561.21
478.656
398.086
267.943
130.068
71.1302
62.0893
58.259
53.8286
51.1007
45.7248
41.9485
38.1775
34.7736
31.7169
26.5153
22.4498
18.1724
14.732
12.7302
9.53822
3.60034
-0.955948
3.56646
1.42394
-4.7585
-3.23074
-1.2085
-3.48711
-5.49186
-4.97126
-2.70265
-3.08174
-3.70682
-4.09494
-4.66032
-5.01513
-5.15101
)
;
    }
    rightWall
    {
        type            calculated;
        value           nonuniform List<scalar> 
50
(
2521.54
2527.91
2492.01
2445.19
2419.17
2374.28
2331.48
2294.06
2209.91
2159.15
2135.24
2237.44
2146.56
1931.85
1840.23
1859.84
1481.36
510.542
98.5538
17.7417
4.96338
2.3827
0.652832
-1.17525
-1.92656
-2.05822
-2.08772
-2.39352
-2.75972
-2.92747
-3.05965
-3.2406
-3.37891
-3.53992
-3.76064
-3.91206
-3.99737
-4.18324
-4.29114
-4.20731
-4.90418
-4.93022
-5.03007
-5.06265
-5.12639
-5.30907
-5.38029
-5.65975
-5.9478
-6.18092
)
;
    }
    lowerWall
    {
        type            calculated;
        value           nonuniform List<scalar> 
62
(
2087.21
2038.81
1872.24
2005.45
1872.6
2054.07
1802.24
1842.38
1825.44
842.083
835.448
810.435
857.409
865.576
867.388
875.487
879.587
876.243
879.124
869.516
870.85
914.774
1852.78
1833.88
837.861
739.381
677.477
622.407
562.802
561.621
893.536
2132.79
2124.93
1953.71
1878.48
2642.97
2586.36
2408.92
2327.72
2231.4
2122.94
2056.59
1930.88
2661.91
2769.24
2723.49
2524.6
2637.82
2662.3
2582.08
2254.34
2249.87
2240.53
2118.27
2227.56
2243.3
2266.22
2230.46
2404.67
2371.28
2425.69
2541.12
)
;
    }
    atmosphere
    {
        type            calculated;
        value           nonuniform List<scalar> 
46
(
-5.72908
-5.7293
-5.73014
-5.72983
-5.72914
-5.7291
-5.72905
-5.72904
-5.72904
-5.72904
-5.72904
-5.72904
-5.72904
-5.72904
-5.72904
-5.72904
-5.72904
-5.72904
-5.73473
-5.72962
-5.74333
-5.73738
-5.73926
-5.75299
-5.75517
-5.76646
-5.7685
-5.78721
-5.8078
-5.81294
-5.81377
-5.87236
-5.88564
-5.93179
-5.95501
-5.94529
-5.96522
-6.03889
-5.98167
-6.01466
-5.98446
-6.00556
-6.02523
-6.14594
-6.19786
-6.45279
)
;
    }
    defaultFaces
    {
        type            empty;
    }
}


// ************************************************************************* //
