/*--------------------------------*- C++ -*----------------------------------*\
| =========                 |                                                 |
| \\      /  F ield         | foam-extend: Open Source CFD                    |
|  \\    /   O peration     | Version:     4.1                                |
|   \\  /    A nd           | Web:         http://www.foam-extend.org         |
|    \\/     M anipulation  |                                                 |
\*---------------------------------------------------------------------------*/
FoamFile
{
    version     2.0;
    format      ascii;
    class       volScalarField;
    location    "0.9";
    object      pd;
}
// * * * * * * * * * * * * * * * * * * * * * * * * * * * * * * * * * * * * * //

dimensions      [1 -1 -2 0 0 0 0];

internalField   nonuniform List<scalar> 
2268
(
2087.21
2038.81
1872.24
2005.45
1872.6
2054.07
1802.24
1842.38
1825.44
842.083
835.448
810.435
857.409
865.576
867.388
875.487
879.587
876.243
879.124
869.516
870.85
914.774
1852.78
2189.09
2113.48
2083.55
2317.25
1847.73
1528.93
1068.47
963.547
985.369
1029.29
837.026
806.783
859.306
863.947
867.103
874.804
878.752
876.208
879.018
870.39
869.959
869.013
922.753
2304.13
2292.96
2327.08
2241.96
2187.72
1621.11
1303.11
1269.5
1442.07
1978.26
1014.48
803.724
837.325
889.858
869.121
876.365
880.895
876.779
879.09
872.203
872.882
868.905
885.065
2328.11
2288.39
2298.44
2023.64
2185.43
1737.97
1536
1531.88
1453.19
1035.37
867.475
822.975
842.525
908.135
851.263
880.117
878.061
877.428
878.399
874.06
873.158
866.957
881.915
2313.16
2288.9
2289.84
2204.94
1985.07
1728.44
1555.74
1313.67
1014.12
892.112
806.25
846.571
873.26
1009.2
926.152
893.365
884.011
876.055
879.196
875.295
872.226
861.512
884.996
2309.12
2229.3
2154.16
1938.5
2230.74
1952.53
1927.78
1439.65
1245.42
1048.01
820.746
960.827
1094.46
1738.91
1109.07
1011.03
885.518
881.421
879.019
880.172
868.539
864.13
881.66
2219.13
1903.43
1936.93
1801.8
2304.16
2192.72
2142.43
1655.17
1589.63
1663.98
1094.24
1507.1
1347.47
2085.27
1364.4
1177.71
988.602
958.554
948.255
908.262
893.219
891.617
928.573
2120
1154.04
1103.87
1274.16
1981.23
2084.02
2294.8
2048.06
1980.45
2319.13
1852.78
2219.09
1645.68
2116
1683.14
1488.99
1493.75
1464.13
1502.49
1138.07
1188.21
1333.12
1268.92
2661.91
2769.24
2723.49
2524.6
2637.82
2662.3
2582.08
2254.34
2249.87
2240.53
2118.27
2227.56
2243.3
2266.22
2230.46
2404.67
2371.28
2425.69
2541.12
2643.3
2813.44
2755.76
2492.75
2695.74
2691.65
2456.12
2255.6
2227.48
2351.02
2352.11
2230.13
2510.38
2558.14
2384.1
2546.23
2581.2
2545.47
2585.06
2504.29
2724.81
2742.68
2540.07
2639.43
2624.54
2516.48
2395.75
2452.63
2500.27
2486.93
2508.06
2503.02
2438.11
2549.02
2627.07
2676.77
2605.08
2586.51
2461.41
2640.93
2711.23
2559.25
2547.96
2652.04
2547.92
2403.34
2571.85
2242.61
2145.31
2095.34
2126.91
2120.68
2394.14
2573.06
2609.61
2632.03
2576.92
2403.02
2658.34
2681.21
2439.36
2420.44
2423.49
2414.02
2545.84
2398.26
2020.44
1836.95
1786.25
1946.44
2324.54
2453.56
2519.03
2609.89
2621.61
2587.95
2331.71
2600.76
2407.18
1991.64
1962.47
1857.79
2171.36
2451.71
2461.67
2291.1
1832.89
1690
1776.75
2419.37
2577.24
2628.9
2674.72
2614.4
2580.36
2298.91
2516.7
2067.08
1824
1698.54
1693.72
1830.21
1698.49
1986.57
2147.64
2272.19
2021.69
1747.56
2363.64
2539.71
2601.38
2668.56
2587.58
2574.73
2199.54
2301.63
2104.91
1997.09
1835.84
1675.75
2051.17
1397.18
1475.69
1764.02
1848.32
2520.46
2372.46
2424.3
2527.51
2550.92
2656
2643.11
2574.12
2157.14
1104.64
701.314
1018.35
1526.36
1851.13
2335.8
2193.94
2165.19
2444.34
2391.24
2459.57
2482.39
2122.88
2049.28
2078.85
2121.06
2191.71
2265.29
2068.27
1964.12
2274.33
2419.24
2073.56
968.814
1031.92
1483.25
1987.29
2127.24
2093.02
2331.82
2398.16
2378.17
2062.49
2469.56
2410.28
2334.69
2367.54
2427.27
2459.95
2446.32
2424.28
2374.75
2343.09
2245.4
2479.19
1278.32
1011.65
1330.4
1458.77
1585.52
2000.67
1557.29
1930.1
2137.32
2388.6
1787.14
2441.65
2399.11
2328.46
2466.47
2509.58
2507.22
2477.76
2403.6
2403.94
2437.14
2396.72
2410.24
842.143
1288.43
1350.08
1097.04
789.095
1721.54
2050.7
2031.71
1873.34
2369.04
1408.7
2433.2
2476.22
2404.65
2486.89
2485.9
2581.43
2400.63
2328.33
2525.64
2491.43
2473.94
2323.86
712.735
1221.31
1040.98
1150
667.419
1001.22
1537.21
1224.16
1300.37
1902.68
1847.16
2509.27
2551.47
2581.98
2425.06
2486.02
2590.5
2574.82
2352.21
2420.22
2575.58
2506.29
2192.86
634.079
733.524
342.975
716.583
332.891
254.202
574.317
746.549
1021.42
1504.44
1583.38
2180.01
2455.9
2411.51
2032.49
2411.07
2324.23
2276.37
2339.74
2377.72
2195.57
1560.66
1176.1
551.145
290.835
132.633
204.468
135.389
140.329
269.834
388.538
555.142
1153.28
1430.81
1540.09
1694.49
1821.17
1612.1
1894.59
1642.22
1522.36
1581.57
1647.24
1319.41
945.652
844.162
396.668
164.312
96.8667
97.2386
94.1285
97.6869
127.855
153.713
152.269
611.223
1452.35
1712.06
949.764
987.117
1235.78
1456.77
1210.44
883.447
845.518
876.822
809.365
720.573
708.446
206.862
129.1
91.7267
86.8175
82.8821
84.7549
91.9088
103.713
126.125
309.585
925.572
1538.12
538.619
499.322
856.359
961.183
785.01
638.088
640.53
664.884
683.44
673.009
647.52
110.041
92.9183
88.1383
80.2789
79.1717
74.6398
72.9758
74.4845
93.6837
167.525
412.309
993.621
295.693
431.141
534.123
541.389
515.092
504.884
567.269
596.037
636.619
661.164
632.256
88.7482
82.0774
78.21
67.5445
72.6903
75.6958
87.593
107.783
137.74
188.49
254.117
343.683
271.12
334.25
353.16
324.052
324.337
384.31
451.292
579.378
670.896
702.774
717.013
80.7927
73.4636
69.3446
75.119
90.5179
109.202
126.762
142.614
163.79
163.228
194.249
209.508
208.697
225.689
253.378
277.76
314.978
418.713
520.669
581.609
649.41
660.866
628.202
73.2779
64.8988
66.2847
78.5607
89.5159
103.849
119.977
125.609
147.672
187.903
176.109
183.806
190.79
189.781
270.587
319.809
375.919
512.382
560.409
580.64
636.925
660.671
619.218
65.8581
61.5002
63.4149
71.7606
84.8204
104.251
132.07
139.693
154.978
163.564
173.387
209.192
246.717
260.848
300.615
296.198
377.481
502.876
517.171
524.176
523.295
434.738
295.844
58.1578
56.0784
56.2358
61.7238
72.0428
99.1639
122.619
141.699
158.318
161.776
168.536
214.412
276.117
297.438
318.5
339.59
366.116
396.347
393.73
348.393
241.284
96.5425
43.7188
53.0309
51.7207
52.7716
56.6342
65.6855
86.2561
99.8347
118.422
131.771
150.729
134.803
181.627
246.493
240.181
234.312
219.068
210.481
160.119
109.891
66.3619
23.0015
3.73521
2.75154
48.4279
46.4931
46.8513
48.4466
55.9458
71.2999
82.8474
98.5403
122.718
143.313
135.734
139.455
145.014
97.3028
69.8152
54.6332
44.6064
23.4962
14.6973
6.29517
1.53382
0.651445
0.210473
43.9987
43.9063
44.1943
46.9428
51.3218
62.5706
74.97
74.8128
98.806
110.432
104.217
82.1769
36.9401
18.4999
12.301
8.60046
4.76009
3.16391
3.78289
3.87524
2.66669
1.49279
0.620635
40.8628
42.3367
42.0982
46.9399
49.4881
55.2323
65.8214
71.198
87.3338
84.2089
60.6941
24.9495
9.63337
4.08279
3.68202
3.39155
3.96537
4.08224
5.74347
5.79581
4.06231
2.20698
1.57033
36.2274
37.4632
40.0825
46.9524
49.1384
51.1836
53.8089
65.3997
74.2697
62.4915
34.0186
11.4391
5.81747
3.85782
3.06425
2.78758
3.61079
4.36422
4.1368
2.88424
1.54797
1.17121
0.494151
33.3161
40.5289
43.7421
48.5715
50.399
50.2192
53.8178
64.5308
63.8509
51.2273
31.151
11.0551
6.75614
5.41684
4.74923
4.78219
4.51708
6.85817
1.28768
-0.343004
-0.71883
-0.687733
-0.576782
31.1719
40.8523
45.1878
46.4531
44.7771
45.0721
51.2428
58.7475
55.2344
41.8903
23.2802
7.66106
3.97044
1.78772
0.894032
-0.510185
-1.73608
0.776303
-0.846805
-1.2973
-1.24317
-1.05369
-1.21744
28.808
33.1967
43.1213
41.2805
37.8256
38.4172
42.7448
45.1433
41.6699
29.8728
17.5617
3.00313
-0.391045
-1.22155
-1.77266
-1.99185
-2.16441
-1.93672
-1.93475
-1.52818
-1.37885
-1.60641
-1.08999
27.2393
37.6343
32.2595
34.8957
34.2827
34.1097
27.0315
30.3487
26.2058
20.5487
16.1424
2.93239
-0.430884
-1.38138
-1.77278
-1.9798
-2.283
-2.42176
-2.10128
-2.14808
-1.83186
-1.32804
-1.23515
24.2547
39.7438
37.194
30.205
23.9193
18.8221
25.0896
22.2243
16.2462
13.102
16.6217
1.55878
-0.232729
-2.00275
-2.1322
-2.41645
-2.55974
-2.19331
-2.19694
-2.01185
-1.7263
-1.47381
-1.1996
18.7772
35.4673
35.4185
27.5117
18.7286
9.08327
20.002
9.50566
5.48314
4.74097
13.3498
2.39121
-1.25692
-2.9812
-2.93163
-2.79858
-2.52789
-2.17322
-1.82386
-1.99914
-1.72985
-1.38864
-1.2071
15.1154
30.0432
29.1685
21.9975
15.1293
11.5259
11.9843
0.19692
-1.61754
-1.92874
1.96973
-1.35787
-3.06702
-3.3099
-3.23506
-2.92589
-2.79947
-2.435
-1.91121
-1.66205
-1.80315
-1.62778
-1.16554
20.9348
28.609
21.6433
13.5124
9.38081
10.5365
8.00921
-0.599501
-2.71817
-3.42536
-2.60697
-3.0359
-3.25453
-2.98102
-3.08554
-2.89373
-2.41265
-2.12387
-2.12021
-1.83349
-1.44572
-1.40728
-1.35977
20.2101
24.3911
16.4861
8.93186
5.67309
6.21725
4.83726
-0.927511
-2.56496
-2.98927
-3.02181
-2.94496
-2.95952
-2.81696
-2.65252
-2.37035
-2.0644
-2.16171
-1.81473
-1.51193
-1.48642
-1.47742
-1.21471
15.021
20.6694
14.4206
7.91837
4.16032
3.62187
2.78364
-0.744395
-2.08153
-2.64819
-2.77847
-2.93017
-2.81123
-2.55907
-2.38582
-1.88011
-1.94979
-1.81792
-1.52273
-1.56621
-1.49511
-1.18975
-0.97575
17.0589
21.1288
13.4784
7.8103
3.79731
2.49626
1.57521
-0.740843
-2.05616
-2.426
-2.44587
-2.86144
-2.66982
-2.4305
-2.22432
-1.88159
-1.74653
-1.49181
-1.50355
-1.43971
-1.15283
-1.06809
-0.90266
19.392
19.5065
11.7182
6.81437
3.12459
1.33017
0.390742
-1.62715
-2.6825
-2.79042
-2.20489
-2.43452
-2.22561
-2.34354
-2.04714
-1.51973
-1.62031
-1.44659
-1.30735
-1.12515
-1.15823
-1.126
-0.880251
17.0204
14.8851
8.13599
4.19683
1.57928
-0.331442
-1.38065
-2.09194
-2.41626
-2.31654
-2.08776
-2.12559
-1.90834
-1.94154
-1.88661
-1.47167
-1.37665
-1.3072
-1.2732
-1.07603
-0.993819
-0.923311
-0.857853
13.8994
13.8389
7.52404
2.75013
0.528015
-1.26059
-2.26746
-2.30483
-2.09431
-2.01082
-1.86072
-1.83069
-1.5998
-1.48215
-1.70331
-1.41044
-1.30124
-1.21914
-0.976719
-1.00225
-0.924359
-0.677579
-0.747767
10.4122
11.2024
7.25534
3.63104
0.39469
-1.36192
-2.65693
-2.68723
-1.61284
-1.62345
-1.47183
-1.68911
-1.29023
-1.2402
-1.27879
-1.09253
-1.04631
-1.07268
-0.852259
-0.911071
-0.734833
-0.721654
-0.687537
6.23529
6.40269
4.67193
2.59846
0.257682
-1.16409
-1.33888
-2.05983
-1.35911
-1.4815
-1.74933
-1.20341
-1.08603
-1.03009
-0.995331
-0.917495
-0.846158
-0.985669
-0.73931
-0.819556
-0.711857
-0.607853
-0.683505
2.74829
3.42915
2.61171
1.62068
0.29091
-0.406106
-1.242
-1.17854
-1.17518
-1.01812
-0.811431
-0.780905
-0.835199
-0.822082
-0.794238
-0.687725
-0.672451
-0.692916
-0.687199
-0.673054
-0.548626
-0.576735
-0.531019
1.56786
1.96976
1.6433
0.816308
0.0149673
-0.413751
-0.450914
-0.554537
-0.690442
-0.504115
-0.876939
-0.654353
-0.840586
-0.518566
-0.684204
-0.668911
-0.460023
-0.601416
-0.605695
-0.529076
-0.423992
-0.497814
-0.391259
1.21314
1.80837
1.27328
0.478322
0.420032
0.0658233
-0.0344327
-0.156617
-0.313763
-0.299475
-0.579443
-0.389765
-0.307964
-0.577007
-0.545881
-0.367435
-0.485615
-0.361457
-0.497526
-0.351669
-0.376696
-0.284619
-0.29899
0.758152
0.638713
0.599752
0.812071
0.698535
0.306504
0.0638978
0.112597
-0.261815
-0.296046
-0.459109
-0.246133
-0.253944
-0.454983
-0.260146
-0.330923
-0.218793
-0.382506
-0.30213
-0.248182
-0.252689
-0.230457
-0.289133
0.526439
0.386267
0.585625
0.712593
0.512183
0.113497
-0.200676
-0.182471
-0.168682
-0.171565
-0.13873
-0.167251
-0.16359
-0.177398
-0.269511
-0.176172
-0.27365
-0.186169
-0.188692
-0.154979
-0.18759
-0.167882
-0.141497
0.51547
0.00491693
0.576233
0.511424
0.0143837
0.146244
0.235484
0.207376
0.0537795
0.0202372
0.036921
-0.0740456
-0.00998526
-0.0554864
0.0287632
-0.0707866
0.0271865
-0.0306359
-0.0501968
-0.0428846
-0.0791562
-0.0587282
-0.061296
2384.16
2372.98
2197.84
2120.18
2483.16
2493.25
2436.85
2419.58
2437.17
2467.25
2502.78
2521.68
2389.2
2420.4
2525.35
2442.25
1938.3
1778.39
1546.65
1200.74
971.636
909.667
916.86
946.49
793.128
810.446
831.874
872.243
720.968
736.761
796.143
855.244
733.248
830.033
948.123
1070.82
665.038
713.388
775.457
840.271
834.872
929.955
971.692
976.108
713.349
733.303
726.181
670.515
565.943
471.446
354.166
254.328
194.908
126.166
81.2916
51.3931
23.7964
15.5806
10.8428
7.32437
2.17486
1.11153
0.57914
0.150022
-0.229037
-0.378381
-0.511016
-0.570775
-0.196325
-0.45271
-0.517234
-0.398288
0.547838
-0.0438529
-0.341303
-0.449888
-0.318534
-0.520474
-0.509255
-0.516294
-0.59617
-0.621634
-0.620339
-0.666792
-1.13209
-0.869453
-0.930662
-0.770965
-1.23617
-1.21913
-1.09727
-1.08841
-1.1737
-1.18265
-1.12892
-1.0543
-1.06856
-0.966092
-1.01406
-1.11029
-1.21723
-1.11686
-0.977623
-0.868081
-1.11452
-1.04399
-0.955597
-0.896777
-1.2082
-1.17167
-1.14407
-1.0415
-1.08073
-1.09665
-1.01238
-0.956064
-1.04703
-1.00807
-0.966112
-0.929527
-0.906436
-0.790038
-0.761739
-0.725258
-0.868444
-0.835371
-0.820996
-0.835575
-0.802347
-0.792231
-0.702649
-0.648352
-0.637133
-0.633807
-0.662044
-0.655605
-0.679385
-0.626167
-0.5611
-0.541983
-0.521174
-0.575483
-0.561616
-0.518221
-0.521729
-0.492369
-0.421434
-0.457837
-0.418358
-0.424281
-0.423279
-0.396886
-0.229204
-0.234598
-0.228133
-0.231116
-0.240654
-0.264761
-0.238443
-0.251588
-0.133354
-0.108944
-0.122104
-0.111413
-0.0889066
-0.0982702
-0.0957206
-0.110364
2517.07
2264.15
2133.4
2099.25
2093.07
2083.18
2258.28
1677.9
2353.72
2577.65
2655.65
2581.52
2571.8
2448.47
2403.42
2443.19
2623.89
2560.1
2549.94
2598.38
2621.85
2563.59
2543.52
2599.54
2627.53
2647.49
2598.93
2665.27
2659.08
2622.2
2475.34
2424.84
2330.06
2264.05
2100.61
2339.02
2666.07
2570.22
2534.72
2260.72
2111.58
2479.54
2056.18
2339.1
2589.28
2374.44
2296.28
2471.83
2612.16
2098.05
2226.08
2360.02
2212.74
1800.19
2188.69
2632.24
2608.91
1995.94
1585.5
1563.1
1462.47
1088.72
1430.29
1891.38
1999.15
2210.45
2264.42
2536.92
2607.13
2553.94
2387.74
1949.43
1573.1
2119.49
2651.91
2717.1
998.052
974.815
1213.68
1509.53
1708.88
1928.24
2187.49
2477.67
2599
2702.42
2699.58
2650.3
2423.57
1889.79
1660.45
1769.17
2426.9
2731
2726
966.312
1273.62
1589.87
1810.71
2030.56
2243.29
2465.87
2659.65
2642.83
2603.23
2565.65
2540.22
2190.52
1851.35
1743.1
2189.61
2560.67
2604.9
2630.26
986.184
1292.84
1576.86
1769.71
1956.87
2171.15
2346.15
2480.39
2587.65
2471.79
2477.86
2648.01
2602.62
2347.54
2116.27
2053.04
2458.7
2606.16
2599.31
880.375
1165.16
1562.28
1652.74
1782.39
1850.16
1963.51
2080.99
2264.75
2287.54
2310.21
2576.98
2562.89
2506.58
2470.76
2485.97
2507.08
2620.09
2591.21
1222.26
1444.14
1566.3
1597.56
1601.35
1537.55
1628.57
1746.7
1623.76
1483.36
1661.77
2156.86
2277.17
2420.63
2548.05
2343.76
2166.68
2206.88
2018.48
863.604
1128.45
1231.74
1181.32
1203.44
1062.37
1185.56
1187.5
882.117
696.542
896.398
1076.66
1184.82
1423.53
1533.54
1009.24
858.267
922.897
773.365
954.428
786.766
545.002
524.879
442.516
396.904
450.79
431.397
346.124
216.279
315.659
367.574
340.467
376.377
360.577
238.244
225.291
217.313
207.361
552.575
298.191
176.099
172.725
152.615
142.769
174.632
131.197
122.356
72.8574
109.369
93.4099
79.7498
86.8145
79.1551
67.4364
73.5389
64.8346
61.8935
164.633
90.9357
69.2428
58.1707
54.8617
49.1757
57.2794
39.2397
39.6737
19.3643
32.8614
18.6014
16.8141
21.9747
24.7413
30.148
31.6123
26.5922
24.5251
30.9133
21.9798
18.7467
21.385
17.3091
14.8315
13.2094
10.8429
12.2948
5.70242
9.94017
4.71923
3.49086
6.63371
11.6394
17.8996
17.8413
14.215
13.6263
3.93794
3.78909
3.7321
5.30507
4.10246
4.71058
3.70568
2.68393
3.52472
1.78963
1.89921
1.19656
1.09584
3.1434
8.37256
12.3967
11.6209
8.48434
9.14441
-0.127497
-0.154065
-0.000506356
0.580526
0.31874
0.650232
1.12282
0.435654
1.0041
0.514318
0.352752
0.540996
0.614984
1.93147
6.15752
8.04422
5.89103
4.8176
6.22985
-0.479678
-0.409675
-0.37662
-0.145223
-0.155481
0.080898
0.0415313
0.128213
0.367834
0.472734
0.244301
0.303516
0.413407
1.47914
5.94599
6.50943
3.35046
2.16446
4.89459
-0.501981
-0.459549
-0.339912
-0.439906
-0.310595
-0.189307
-0.0109682
-0.072296
-0.0198868
0.132917
0.133804
0.202849
0.190039
0.533224
3.62639
5.38466
2.10028
1.02652
4.38385
-0.511073
-0.450102
-0.389688
-0.246991
-0.229083
-0.19194
-0.185456
-0.108965
-0.0732134
0.0711445
0.0104647
0.10785
0.141716
0.0629043
0.864726
2.43611
1.24593
0.535967
4.11427
-0.418984
-0.458065
-0.330899
-0.38033
-0.519155
-0.224293
-0.124277
-0.0728765
-0.040283
-0.0125111
-0.032444
-0.00813037
0.000921616
-0.0160118
0.209058
0.762248
0.457991
0.358199
3.69846
-0.838521
-0.526627
-0.694519
-0.446792
-0.547531
-0.274173
-0.421095
-0.219396
-0.246938
-0.122816
-0.121921
0.0199059
-0.0383248
0.000428132
0.107412
0.439797
0.0559781
0.234567
3.28116
-0.790201
-0.637791
-0.556097
-0.511332
-0.340727
-0.608378
-0.435349
-0.313622
-0.284552
-0.25661
-0.134765
-0.15381
-0.0553268
0.0520819
0.057194
0.227836
0.0544886
0.267664
3.08808
-0.96144
-0.764937
-0.673517
-0.533678
-0.470082
-0.544845
-0.257433
-0.269977
-0.166829
-0.104653
-0.161494
-0.0403911
-0.070038
-0.0657541
0.0388203
0.0820713
0.13771
0.275975
2.97079
-0.877911
-0.80611
-0.664664
-0.584766
-0.420725
-0.318981
-0.344466
-0.31247
-0.279432
-0.19785
-0.182589
-0.11478
-0.0743407
-0.0432313
0.0498489
0.074498
0.118561
0.289
2.75465
-0.970002
-0.767924
-0.708808
-0.654333
-0.473625
-0.400702
-0.243381
-0.221594
-0.260611
-0.145386
-0.176457
-0.121403
-0.0305344
0.0530474
0.0680691
0.185846
0.18036
0.290229
2.53536
-0.828846
-0.95199
-0.456989
-0.635148
-0.506531
-0.476989
-0.634683
-0.541824
-0.321986
-0.220026
-0.106638
-0.158507
-0.139139
-0.259913
-0.0691305
-0.171465
0.222041
0.259598
2.34222
-0.90909
-0.965693
-0.839084
-0.616277
-0.482141
-0.443439
-0.541894
-0.326592
-0.451714
-0.540075
-0.380222
-0.169905
-0.207635
-0.339988
-0.239223
-0.157205
-0.114354
0.163299
2.11572
-0.841633
-0.674074
-0.752748
-0.643706
-0.698892
-0.459927
-0.279239
-0.353409
-0.176845
-0.304022
-0.131961
-0.35985
-0.167885
-0.0673613
-0.188621
-0.220242
-0.0530685
0.122469
1.97567
-0.874803
-0.770673
-0.795381
-0.657452
-0.57003
-0.471484
-0.370264
-0.352479
-0.316525
-0.395928
-0.214491
-0.151543
-0.0558153
-0.0794004
0.0247706
-0.0880232
-0.0853187
0.101904
1.9282
-0.8238
-0.685625
-0.517789
-0.653391
-0.571591
-0.443458
-0.29601
-0.216556
-0.244315
-0.178883
-0.411303
-0.226489
-0.0850834
-0.0189713
-0.0752446
-0.0424856
-0.0719301
0.070997
1.78156
-0.722139
-0.605768
-0.540253
-0.569327
-0.413193
-0.653618
-0.345114
-0.481819
-0.306434
-0.273276
-0.302131
-0.273488
-0.347791
-0.414203
-0.0972091
-0.110955
-0.0826076
0.0057882
1.72029
-0.730712
-0.713639
-0.555371
-0.499972
-0.47094
-0.350339
-0.568134
-0.359474
-0.314466
-0.306228
-0.453815
-0.417659
-0.312087
-0.248009
-0.117058
-0.0937025
-0.133292
0.0433214
1.79377
-0.60922
-0.482204
-0.571481
-0.459328
-0.398278
-0.403524
-0.253491
-0.406871
-0.28556
-0.213379
-0.0804442
-0.0629317
-0.208691
-0.0850894
-0.390005
-0.192309
-0.0938017
-0.125717
1.10232
-0.666026
-0.542175
-0.474504
-0.420254
-0.376089
-0.342073
-0.315576
-0.146248
-0.224728
-0.235989
-0.166542
-0.176956
-0.23143
-0.185979
-0.193199
-0.212934
-0.278244
-0.380333
1.96803
-0.461729
-0.507866
-0.577101
-0.396663
-0.326874
-0.323749
-0.285738
-0.222371
-0.150097
-0.177959
-0.140468
-0.148096
-0.177937
-0.213485
-0.326617
-0.309649
-0.379807
-0.349342
1.07124
-0.546162
-0.418626
-0.338661
-0.516069
-0.298793
-0.264576
-0.244561
-0.218987
-0.138244
-0.177865
-0.174404
-0.168916
-0.200967
-0.147123
-0.013135
-0.339592
-0.0137869
-0.354767
1.0733
-0.459697
-0.488087
-0.351297
-0.265445
-0.298638
-0.411776
-0.264348
-0.246831
-0.297936
-0.215012
-0.191314
-0.154477
-0.130626
-0.0456381
0.0107593
-0.00696692
-0.0806531
0.00538398
0.947017
-0.317177
-0.365982
-0.293421
-0.252897
-0.439864
-0.165713
-0.245543
-0.22041
-0.252386
-0.210217
-0.205664
-0.187684
-0.206839
-0.338079
-0.250157
-0.175391
-0.119052
-0.100932
0.789079
-0.253892
-0.308785
-0.23217
-0.313884
-0.143633
-0.213792
-0.221204
-0.201377
-0.194308
-0.195929
-0.179428
-0.194946
-0.168331
-0.206623
-0.129448
-0.00442499
-0.0999646
-0.0712432
0.515277
-0.242047
-0.142209
-0.273138
-0.234913
-0.190842
-0.140499
-0.141649
-0.104962
-0.134467
-0.156321
-0.0957578
-0.161119
-0.197231
-0.245258
-0.303553
-0.422538
-0.174588
-0.178091
0.130163
-0.228835
-0.111132
-0.214848
-0.181873
-0.153989
-0.315653
-0.135416
-0.368886
-0.136633
-0.146638
-0.431249
-0.126136
-0.185531
-0.302955
-0.368209
-0.346788
-0.257518
-0.608607
0.861398
-0.0454573
-0.153424
-0.0735661
-0.0932491
-0.251944
-0.0627116
-0.316552
-0.131806
-0.345717
-0.363995
-0.216862
-0.387086
-0.414345
-0.213682
-0.198421
-0.246304
-0.521698
-0.342122
0.201364
)
;

boundaryField
{
    leftWall
    {
        type            zeroGradient;
    }
    rightWall
    {
        type            zeroGradient;
    }
    lowerWall
    {
        type            zeroGradient;
    }
    atmosphere
    {
        type            totalPressure;
        rho             rho;
        psi             none;
        gamma           1;
        p0              uniform 0;
        value           nonuniform List<scalar> 
46
(
0
0
0
0
0
0
0
0
0
0
0
0
0
0
0
0
0
0
-0.00568617
-0.00058065
-0.0142946
-0.00833962
-0.010224
-0.0239528
-0.0261323
-0.0374226
-0.0394607
-0.0581686
-0.0787591
-0.0839044
-0.0847301
-0.143324
-0.156596
-0.202751
-0.22597
-0.216246
-0.236183
-0.309854
-0.252633
-0.285527
-0.255297
-0.2764
-0.296036
-0.415602
-0.466704
0
)
;
    }
    defaultFaces
    {
        type            empty;
    }
}


// ************************************************************************* //
