/*--------------------------------*- C++ -*----------------------------------*\
| =========                 |                                                 |
| \\      /  F ield         | foam-extend: Open Source CFD                    |
|  \\    /   O peration     | Version:     4.1                                |
|   \\  /    A nd           | Web:         http://www.foam-extend.org         |
|    \\/     M anipulation  |                                                 |
\*---------------------------------------------------------------------------*/
FoamFile
{
    version     2.0;
    format      ascii;
    class       surfaceScalarField;
    location    "0.9";
    object      phi;
}
// * * * * * * * * * * * * * * * * * * * * * * * * * * * * * * * * * * * * * //

dimensions      [0 3 -1 0 0 0 0];

internalField   nonuniform List<scalar> 
4432
(
-3.99734e-06
3.99734e-06
-2.07311e-05
1.67338e-05
-3.05689e-05
9.83772e-06
-3.57674e-05
5.19856e-06
-2.02106e-05
-1.55568e-05
-6.07113e-06
-1.41395e-05
-4.65169e-06
-1.41944e-06
-1.79342e-06
-2.85827e-06
5.13536e-06
-6.92878e-06
-1.57979e-05
2.09332e-05
-1.90754e-05
3.27757e-06
-1.80611e-05
-1.01438e-06
-1.49593e-05
-3.10173e-06
-5.36457e-06
-9.59475e-06
-3.57736e-06
-1.78721e-06
-1.52313e-06
-2.05422e-06
-1.1659e-08
-1.51148e-06
-9.16104e-07
9.04442e-07
-1.81542e-06
8.99312e-07
-2.54472e-06
7.29301e-07
2.64091e-07
-2.80882e-06
-7.91168e-07
1.05526e-06
-7.9117e-07
-1.02819e-05
1.42793e-05
-2.06728e-05
2.71246e-05
-2.18223e-05
1.09872e-05
-3.76961e-05
2.10724e-05
-4.6305e-05
-6.94787e-06
-5.54618e-05
-4.98271e-06
-4.23725e-05
-1.45087e-05
-3.50804e-05
-1.01504e-05
-3.94508e-05
-2.55831e-06
-1.34846e-05
-5.03299e-06
-2.38044e-05
1.35974e-05
-1.27392e-05
-1.20796e-05
-1.76963e-05
1.85535e-06
-1.09399e-05
-1.63512e-05
-6.21895e-06
-6.50814e-06
-1.76214e-06
-6.51103e-06
-9.71151e-07
-2.30247e-06
8.65664e-07
-9.32379e-07
1.63656e-06
1.28415e-07
1.38236e-06
9.83498e-07
1.42621e-06
-2.85267e-06
2.08985e-06
3.91615e-07
1.29867e-06
-2.62458e-05
4.05251e-05
-2.03878e-05
2.12666e-05
-3.67987e-05
2.73981e-05
-3.49488e-05
1.92226e-05
-3.6385e-05
-5.5117e-06
-4.64232e-05
5.05552e-06
-3.75638e-05
-2.33682e-05
-2.8191e-05
-1.95231e-05
-2.08066e-05
-9.94273e-06
-9.63581e-06
-1.62038e-05
-1.9557e-05
2.35185e-05
-1.73984e-05
-1.42382e-05
-1.51423e-05
-4.0071e-07
-1.51668e-05
-1.63267e-05
-3.88537e-06
-1.77896e-05
-2.49998e-06
-7.89642e-06
-1.79264e-06
-3.00981e-06
2.83645e-07
-3.00867e-06
1.91128e-06
-1.49923e-06
3.27619e-06
-3.81418e-07
1.82292e-06
-1.39939e-06
1.7018e-06
5.12728e-07
3.00047e-06
-1.66795e-05
5.72046e-05
-2.09203e-05
2.55074e-05
-3.78584e-05
4.43362e-05
-2.22026e-05
3.5668e-06
-3.78372e-05
1.01229e-05
-4.15346e-05
8.7529e-06
-3.26305e-05
-3.22722e-05
-2.62669e-05
-2.58868e-05
-2.10321e-05
-1.51775e-05
-2.70127e-05
-1.02232e-05
-2.86249e-05
2.51308e-05
-3.76816e-05
-5.18146e-06
-3.31528e-05
-4.92955e-06
-9.71774e-06
-3.97618e-05
-6.709e-06
-2.07983e-05
-8.62121e-06
-5.98422e-06
-4.13298e-06
-7.49805e-06
-4.52052e-07
-6.6896e-06
1.85704e-06
-3.80833e-06
3.21966e-06
-1.74404e-06
1.70622e-06
1.14045e-07
4.61651e-07
1.75729e-06
3.46213e-06
-1.83793e-05
7.55839e-05
-3.46653e-05
4.17935e-05
-3.46393e-05
4.43102e-05
-3.86714e-05
7.59882e-06
-4.66068e-05
1.80583e-05
-5.05387e-05
1.26849e-05
-6.30885e-05
-1.97224e-05
-6.10325e-05
-2.79428e-05
-5.17505e-05
-2.44595e-05
-4.01299e-05
-2.18438e-05
-4.24961e-05
2.74969e-05
-3.9919e-05
-7.75857e-06
-1.85755e-05
-2.62731e-05
-2.17066e-05
-3.66307e-05
-8.30383e-06
-3.42011e-05
-7.61104e-06
-6.67701e-06
-3.57364e-06
-1.15355e-05
-1.04304e-06
-9.2202e-06
1.39055e-06
-6.24192e-06
7.85069e-07
-1.13855e-06
9.14346e-07
-1.52323e-08
4.91738e-07
2.1799e-06
3.95386e-06
-1.55124e-05
9.10963e-05
-1.95446e-05
4.58257e-05
-3.3517e-06
2.81173e-05
-1.48757e-05
1.91228e-05
-3.81438e-05
4.13264e-05
-4.29992e-05
1.75403e-05
-3.22486e-05
-3.0473e-05
-3.61872e-05
-2.40042e-05
-2.92669e-05
-3.13798e-05
-3.90177e-05
-1.2093e-05
-2.47689e-05
1.32481e-05
-2.09779e-05
-1.15496e-05
-3.40092e-05
-1.32418e-05
-1.15309e-05
-5.9109e-05
-5.11567e-06
-4.06163e-05
-7.39605e-06
-4.39663e-06
-4.59956e-06
-1.4332e-05
-3.00419e-06
-1.08156e-05
2.12622e-06
-1.13723e-05
1.32307e-06
-3.35411e-07
2.42715e-06
-1.11931e-06
1.60339e-07
4.44672e-06
4.1142e-06
-3.26547e-05
0.000123751
-2.1902e-05
3.5073e-05
-1.54774e-05
2.16926e-05
-3.56954e-05
3.93409e-05
-3.38815e-05
3.95125e-05
-3.08434e-05
1.45021e-05
-3.9591e-05
-2.17253e-05
-2.65588e-05
-3.70365e-05
-4.24648e-05
-1.54737e-05
-3.50317e-05
-1.9526e-05
-2.21721e-05
3.88511e-07
-1.83931e-05
-1.53286e-05
-2.83469e-05
-3.28798e-06
-1.12969e-05
-7.6159e-05
-2.00527e-05
-3.18604e-05
-1.67286e-05
-7.72069e-06
-1.01202e-05
-2.09404e-05
-1.80109e-06
-1.91347e-05
2.52461e-06
-1.5698e-05
1.42242e-06
7.66778e-07
2.58592e-06
-2.28281e-06
1.72023e-07
6.86061e-06
4.28623e-06
-7.32523e-06
0.000131076
-1.18455e-06
2.89323e-05
-1.31393e-05
3.36474e-05
-2.50042e-05
5.12058e-05
-7.79428e-06
2.23026e-05
-6.08087e-06
1.27888e-05
-2.11488e-05
-6.65739e-06
-1.73641e-05
-4.08212e-05
-2.82007e-05
-4.63706e-06
-1.29991e-05
-3.47277e-05
-1.98138e-05
7.20318e-06
-1.95434e-05
-1.55989e-05
-2.78083e-05
4.97686e-06
-1.42128e-05
-8.97545e-05
-2.258e-05
-2.34932e-05
-1.87788e-05
-1.1522e-05
-4.95425e-06
-3.47649e-05
-1.1581e-06
-2.29309e-05
-3.16834e-06
-1.36878e-05
4.32444e-06
-6.72601e-06
1.32028e-05
-1.11612e-05
3.17991e-06
1.68835e-05
7.46613e-06
-5.29156e-05
5.29156e-05
-7.49376e-05
2.2022e-05
-0.000100156
2.5218e-05
-0.000121571
2.14158e-05
-0.000117674
-3.89786e-06
-0.000119617
1.94312e-06
-0.000127539
7.92259e-06
-8.92012e-05
-3.83382e-05
-8.67027e-05
-2.4985e-06
-7.99184e-05
-6.78429e-06
-8.2765e-05
2.84665e-06
-0.000132682
4.99166e-05
-0.000127587
-5.09501e-06
-0.000122893
-4.69335e-06
-0.000121234
-1.65938e-06
-0.000100841
-2.03931e-05
-4.42769e-05
-5.65639e-05
-4.32645e-05
-1.01242e-06
-4.32644e-05
-2.34697e-05
7.63853e-05
-6.45413e-05
6.30935e-05
-8.82928e-05
4.89697e-05
-7.05213e-05
3.64426e-06
-0.000110231
3.58118e-05
-0.000113115
4.82735e-06
-7.69797e-05
-2.8213e-05
-8.8952e-05
-2.63658e-05
-8.64126e-05
-5.03791e-06
-0.000132782
3.95854e-05
-0.000128068
-1.86729e-06
-7.58844e-05
-2.26732e-06
-0.000115036
3.40565e-05
-0.000108504
-1.12254e-05
-5.98606e-05
-5.03027e-05
-7.75233e-05
-2.73043e-06
-6.09175e-05
-7.31696e-05
-3.00726e-05
-3.18573e-05
-7.3337e-05
-2.5251e-05
0.000101636
-3.80082e-05
7.58507e-05
-3.40285e-05
4.499e-05
-6.31047e-05
3.27204e-05
-0.000113411
8.61183e-05
-0.000109944
1.35989e-06
-0.000119687
-1.84699e-05
-0.00012968
-1.63729e-05
-0.000126788
-7.92977e-06
-0.000117354
3.01518e-05
-0.000112726
-6.49544e-06
-0.000111027
-3.96696e-06
-0.000105303
2.83328e-05
-8.92071e-05
-2.73211e-05
-9.05298e-05
-4.898e-05
-6.73975e-05
-2.58627e-05
-4.09531e-05
-9.9614e-05
-1.38009e-05
-5.90096e-05
-8.71379e-05
-2.02747e-05
0.000121911
-3.99313e-05
9.55073e-05
-7.35421e-05
7.86008e-05
-0.000106202
6.53805e-05
-6.28504e-05
4.27665e-05
-0.000112541
5.10504e-05
-0.000120116
-1.08947e-05
-7.93665e-05
-5.71225e-05
-0.000120966
3.36699e-05
-6.93473e-05
-2.14671e-05
-0.000103923
2.80805e-05
-9.36331e-05
-1.42571e-05
-4.16953e-05
-2.3605e-05
-4.14335e-05
-2.7583e-05
-2.88126e-05
-6.16008e-05
-7.58107e-06
-4.70943e-05
-1.76857e-05
-8.95094e-05
-4.81914e-06
-7.18761e-05
-9.1957e-05
-2.20207e-05
0.000143932
-4.58397e-05
0.000119326
-6.6021e-05
9.87821e-05
-5.3683e-05
5.30425e-05
-9.17406e-05
8.08241e-05
-8.39028e-05
4.32125e-05
-5.97139e-05
-3.50836e-05
-0.000110615
-6.22134e-06
-6.29139e-05
-1.40313e-05
-9.01671e-05
5.78621e-06
-6.78822e-05
5.79556e-06
-4.70605e-05
-3.50788e-05
-4.27346e-05
-2.79309e-05
-7.42995e-06
-6.28876e-05
3.19251e-06
-7.22233e-05
1.09749e-05
-5.48767e-05
6.18668e-06
-8.47211e-05
1.48616e-05
-8.05511e-05
-7.70954e-05
-2.36231e-05
0.000167555
-4.40038e-05
0.000139707
-5.44227e-05
0.000109201
-7.2475e-05
7.10948e-05
-6.43937e-05
7.27428e-05
-5.29723e-05
3.17911e-05
-6.77405e-05
-2.03153e-05
-7.40781e-05
1.16229e-07
-7.23565e-05
-1.57529e-05
-3.547e-05
-3.11003e-05
-2.84156e-05
-1.25884e-06
-6.87027e-06
-5.66241e-05
-1.10956e-06
-3.36916e-05
2.8029e-05
-9.20262e-05
1.79151e-05
-6.21094e-05
4.04135e-05
-7.73751e-05
2.20049e-05
-6.63125e-05
1.43128e-05
-7.2859e-05
-6.27825e-05
-4.75973e-05
0.000215152
-5.248e-05
0.00014459
-4.85489e-05
0.00010527
-2.61187e-05
4.86646e-05
-2.32327e-05
6.98568e-05
-3.50586e-05
4.3617e-05
-5.2093e-05
-3.28089e-06
-4.20192e-05
-9.95755e-06
-3.03328e-05
-2.74393e-05
-3.00713e-05
-3.13618e-05
-4.04234e-06
-2.72878e-05
4.954e-06
-6.56204e-05
1.88968e-05
-4.76344e-05
4.86039e-05
-0.000121733
5.29552e-05
-6.64607e-05
5.16941e-05
-7.6114e-05
2.48264e-05
-3.94449e-05
1.65808e-05
-6.46134e-05
-4.62017e-05
-6.69374e-05
0.00028209
-7.12929e-05
0.000148945
-2.32474e-05
5.72245e-05
-2.11064e-05
4.65236e-05
-1.17094e-05
6.04599e-05
-1.22353e-05
4.41428e-05
-1.97953e-05
4.27908e-06
-2.98587e-05
1.05874e-07
-2.28314e-05
-3.44666e-05
-8.64866e-06
-4.55445e-05
-5.87536e-06
-3.00611e-05
2.71883e-05
-9.86841e-05
2.73687e-05
-4.78148e-05
3.04598e-05
-0.000124824
6.18434e-05
-9.78442e-05
5.69652e-05
-7.12358e-05
5.08328e-05
-3.33125e-05
1.86829e-05
-3.24634e-05
-2.75188e-05
-7.17271e-07
0.000131794
-6.43454e-06
3.46496e-05
-2.4269e-05
5.14819e-05
-1.77792e-05
4.47161e-05
-2.44267e-05
2.895e-05
-2.78494e-05
1.62114e-05
-3.29376e-05
-1.56912e-06
-7.42391e-05
4.80293e-07
-6.99832e-05
-8.89303e-06
-8.88151e-05
-1.58958e-05
-4.96139e-05
-3.1998e-05
-2.56012e-05
-3.96116e-05
-1.30109e-05
-7.61349e-06
-5.55831e-05
-4.71823e-05
-5.17371e-05
-2.73392e-05
-3.60783e-05
-2.71808e-05
-2.47761e-05
-4.6067e-05
-2.63093e-05
-2.13976e-05
-1.13297e-05
-2.86674e-05
2.1512e-05
-3.95677e-05
9.94634e-06
4.04453e-07
-5.4188e-05
8.10179e-05
4.64603e-05
-9.31822e-05
2.26676e-05
0.000109126
2.30318e-06
5.5014e-05
-1.09117e-05
6.46968e-05
-1.34937e-05
4.72981e-05
-1.02023e-05
2.56585e-05
-4.30472e-06
1.03139e-05
-1.31477e-05
7.27382e-06
-2.6014e-05
1.33466e-05
-4.61749e-05
1.12678e-05
-8.04984e-05
1.84278e-05
-6.97212e-05
-4.27752e-05
-8.28509e-05
-2.64819e-05
-6.15485e-05
-2.89159e-05
-9.5396e-05
-1.33348e-05
-9.27799e-05
-2.99553e-05
-9.86779e-05
-2.12828e-05
-0.00010393
-4.08144e-05
-0.000108799
-1.65289e-05
-0.000120754
-1.67123e-05
-0.000146295
-1.40266e-05
-0.000178062
3.2171e-05
-0.000128628
3.15836e-05
9.93667e-05
-0.000181534
-1.83e-05
0.000127426
-2.4352e-05
6.1066e-05
1.04868e-06
3.92962e-05
1.24188e-05
3.59279e-05
-5.51807e-06
4.35955e-05
-1.10276e-05
1.58234e-05
-7.26914e-06
3.51539e-06
-7.05819e-06
1.31357e-05
-1.65786e-05
2.07882e-05
-3.33956e-05
3.52448e-05
-5.62274e-05
-1.99434e-05
-7.38071e-05
-8.90226e-06
-0.00010678
4.05717e-06
-0.000127802
7.6873e-06
-0.000148463
-9.29408e-06
-0.000143676
-2.60701e-05
-0.000150761
-3.37299e-05
-0.000185978
1.86888e-05
-0.000220855
1.81639e-05
-0.000226413
-8.46796e-06
-0.000222474
2.82322e-05
-0.000219988
2.9097e-05
8.44236e-05
-0.000205045
-1.86041e-05
0.00014603
-2.28173e-05
6.52791e-05
-2.47739e-05
4.12528e-05
-9.15791e-06
2.03119e-05
-1.54408e-05
4.98784e-05
-4.15254e-05
4.1908e-05
-4.84559e-05
1.04459e-05
-2.26417e-05
-1.26784e-05
-9.96589e-06
8.11235e-06
-1.42084e-05
3.94874e-05
-7.1839e-05
3.76871e-05
-0.000103913
2.31719e-05
-0.000135728
3.58719e-05
-0.000154267
2.62269e-05
-0.000158838
-4.72307e-06
-0.000162819
-2.20897e-05
-0.000166768
-2.9781e-05
-0.000131267
-1.68123e-05
-0.000146275
3.31723e-05
-0.000201066
4.63231e-05
-0.000186221
1.33875e-05
-0.00017984
2.27154e-05
1.13777e-05
-0.000106794
-8.11533e-06
0.000154146
1.00004e-05
4.71633e-05
6.48377e-07
5.06049e-05
-1.58921e-05
3.68523e-05
-2.18738e-05
5.58601e-05
-3.75627e-05
5.75969e-05
-6.70659e-05
3.99492e-05
-5.92497e-05
-2.04947e-05
-8.08156e-05
2.96782e-05
-8.3211e-05
4.18828e-05
-0.000122255
7.67306e-05
-0.000123457
2.43739e-05
-0.000123609
3.60243e-05
-0.000146677
4.92948e-05
-0.00011726
-3.41403e-05
-0.000103591
-3.57586e-05
-0.000140432
7.06024e-06
-0.000162049
4.8052e-06
-0.000139543
1.06661e-05
-0.000125245
3.20251e-05
-0.000168891
5.70336e-05
-0.00017054
2.43639e-05
2.62583e-05
-0.00018542
7.98232e-06
0.000146163
5.24084e-06
4.99048e-05
1.05177e-06
5.4794e-05
-1.96182e-05
5.75223e-05
-1.90108e-05
5.52528e-05
-2.20595e-05
6.06456e-05
-1.0008e-05
2.78977e-05
-4.62479e-05
1.57453e-05
-9.63153e-05
7.97456e-05
-0.00010104
4.66078e-05
-7.60098e-05
5.17001e-05
-9.91343e-05
4.74984e-05
-0.000111231
4.8121e-05
-8.37906e-05
2.18544e-05
-9.66814e-05
-2.12495e-05
-0.000140096
7.65627e-06
-0.000149118
1.6082e-05
-0.00016673
2.24172e-05
-0.000190065
3.40007e-05
-0.000198399
4.0359e-05
-0.000213792
7.24268e-05
-0.000235752
4.63243e-05
6.27129e-05
-0.000272207
2.18889e-05
0.000124274
6.06212e-08
7.17332e-05
-5.57193e-06
6.04266e-05
9.22665e-06
4.27238e-05
-2.4432e-06
6.69227e-05
-2.92003e-05
8.74027e-05
-4.5785e-05
4.44824e-05
-7.65458e-05
4.65061e-05
-6.95006e-05
7.27004e-05
-6.5852e-05
4.29592e-05
-7.88774e-05
6.47255e-05
-0.000127066
9.56866e-05
-0.000129615
5.06699e-05
-0.000141121
3.33604e-05
-0.000153899
-8.47128e-06
-0.000153024
6.78131e-06
-0.000162651
2.57096e-05
-0.000182255
4.20205e-05
-0.000195561
4.73073e-05
-0.000223818
6.86153e-05
-0.000240738
8.93471e-05
-0.000279751
8.5337e-05
9.44538e-05
-0.000311492
1.81043e-05
0.00010617
1.26683e-05
7.71692e-05
5.63167e-06
6.74633e-05
4.85244e-06
4.35031e-05
2.77974e-06
6.89955e-05
-1.4785e-05
0.000104968
-5.15759e-05
8.12733e-05
-6.1263e-05
5.61932e-05
-5.6019e-05
6.74564e-05
-7.77606e-05
6.47008e-05
-6.50784e-05
5.20433e-05
-8.14032e-05
0.000112011
-0.000106162
7.54284e-05
-0.000137506
6.47049e-05
-0.000151224
5.2466e-06
-0.000178393
3.39506e-05
-0.000205305
5.26218e-05
-0.000216504
5.32187e-05
-0.000236317
6.71203e-05
-0.000256461
8.87593e-05
-0.000285766
0.000118653
-0.000333993
0.000133564
9.61339e-05
-0.000335673
3.20563e-05
7.41137e-05
4.72721e-05
6.19535e-05
1.44724e-05
0.000100263
1.31304e-05
4.48451e-05
-1.57812e-05
9.79072e-05
-1.97287e-05
0.000108915
-2.04627e-05
8.20074e-05
-2.68975e-05
6.26281e-05
-3.5134e-05
7.5693e-05
-3.57264e-05
6.52932e-05
-2.86024e-05
4.49193e-05
-5.69623e-05
0.000140371
-9.26808e-05
0.000111147
-7.96143e-05
5.16384e-05
-0.000155773
8.14052e-05
-0.000208798
8.69753e-05
-0.000237768
8.1592e-05
-0.00027243
8.78807e-05
-0.000292517
8.72077e-05
-0.000321958
0.0001182
-0.000332007
0.000128701
-0.0003265
0.000128057
0.000129077
-0.000359443
4.7269e-06
6.93868e-05
5.04576e-06
6.16347e-05
1.37536e-05
9.15554e-05
-8.16829e-06
6.67671e-05
-1.2331e-05
0.00010207
-1.0959e-05
0.000107543
1.30449e-05
5.80037e-05
1.64163e-05
5.92569e-05
3.78009e-05
5.43084e-05
-2.20654e-05
0.00012516
-6.79063e-05
9.07602e-05
-3.76908e-05
0.000110156
-6.22049e-05
0.000135661
-0.000151999
0.000141433
-0.000191723
0.000121129
-0.000231383
0.000126635
-0.000228563
7.87717e-05
-0.000268628
0.000127946
-0.000321594
0.000140173
-0.00033021
0.000126817
-0.000292795
9.12866e-05
-0.000262011
9.72725e-05
0.000143755
-0.000276689
7.47316e-06
6.19137e-05
-3.27718e-05
0.00010188
-1.08832e-05
6.96668e-05
-2.80647e-05
8.39488e-05
-3.79919e-05
0.000111997
-3.53041e-05
0.000104856
-3.87083e-05
6.14081e-05
-8.11123e-05
0.000101661
-7.97261e-05
5.29222e-05
-7.73826e-05
0.000122816
-0.000106312
0.00011969
-0.000168836
0.00017268
-0.000200223
0.000167048
-0.000138025
7.92349e-05
-0.000157103
0.000140207
-0.000174593
0.000144125
-0.000257401
0.00016158
-0.000263891
0.000134436
-0.000207134
8.34162e-05
-0.000185822
0.000105505
-0.000278455
0.00018392
-0.000284208
0.000103026
0.00014767
-0.000288123
-7.46798e-06
6.93817e-05
-6.17188e-05
0.000156131
-0.000126002
0.000133951
-0.000230577
0.000188524
-0.000264805
0.000146225
-0.000254889
9.49394e-05
-0.000236588
4.31072e-05
-0.000237354
0.000102427
-0.000262991
7.8559e-05
-0.000181498
4.13233e-05
-0.000166109
0.000104301
-0.000154086
0.000160656
-0.000158836
0.000171798
-0.000282299
0.000202698
-0.000305947
0.000163855
-0.000274341
0.00011252
-0.000276169
0.000163407
-0.000287904
0.000146171
-0.000309237
0.000104749
-0.00031285
0.000109118
-0.000297672
0.000168742
-0.000301868
0.000107222
3.47865e-05
-0.000188985
-1.53539e-05
8.47356e-05
-7.46276e-05
0.000215405
-0.000246129
0.000305452
-0.000289869
0.000232264
-0.000279274
0.000135631
-0.000276174
9.18393e-05
-0.00028239
4.93224e-05
-0.000223119
4.31565e-05
-0.000236625
9.2065e-05
-0.000340247
0.000144945
-0.000369847
0.000133902
-0.000347354
0.000138163
-0.000325568
0.000150012
-0.000234597
0.000111727
-0.000197019
0.000126277
-0.000325532
0.000241033
-0.000354045
0.00019192
-0.000316425
0.00010855
-0.000325611
0.000113936
-0.00034629
0.000129797
-0.000328788
0.00015124
-0.000287402
6.58354e-05
6.42392e-06
-0.000259039
-5.70925e-05
0.000141828
-0.000171089
0.000329401
-0.000250921
0.000385284
-0.000295741
0.000277083
-0.000268586
0.000108476
-0.000305206
0.000128459
-0.000360473
0.00010459
-0.000405963
8.86465e-05
-0.000384575
7.06766e-05
-0.000381446
0.000141816
-0.000399372
0.000151828
-0.000410094
0.000148885
-0.000398198
0.000138116
-0.000429792
0.000143321
-0.000408657
0.000105142
-0.000265551
9.7927e-05
-0.00025962
0.00018599
-0.000336009
0.000184939
-0.000352554
0.00013048
-0.000336532
0.000113775
-0.000269381
8.40881e-05
-0.000209247
5.70203e-06
-2.26837e-05
-0.00018014
-4.61314e-05
0.00018796
-0.000112262
0.000395532
-0.000119697
0.000392719
-0.000155562
0.000312948
-0.000299401
0.000252316
-0.000333436
0.000162494
-0.000372148
0.000143302
-0.000401989
0.000118487
-0.000422081
9.07687e-05
-0.000431828
0.000151564
-0.000455155
0.000175155
-0.000472126
0.000165855
-0.000417787
8.37776e-05
-0.000412199
0.000137732
-0.000429634
0.000122577
-0.000452171
0.000120464
-0.000405718
0.000139537
-0.000343448
0.000122669
-0.000302432
8.94648e-05
-0.00025783
6.91729e-05
-0.000205683
3.19415e-05
-0.000163427
-3.6554e-05
-6.59777e-05
-0.000120133
-4.43375e-05
0.000232297
-0.000110349
0.000461543
-0.000170352
0.000452722
-0.000241297
0.000383893
-0.000285086
0.000296105
-0.000316863
0.000194271
-0.000345617
0.000172057
-0.000330925
0.000103794
-0.000381517
0.00014136
-0.000391223
0.00016127
-0.00030575
8.96819e-05
-0.00030763
0.000167735
-0.000417545
0.000193693
-0.000396726
0.000116913
-0.000363855
8.97066e-05
-0.000326051
8.26599e-05
-0.000285877
9.93623e-05
-0.000258434
9.52268e-05
-0.000235158
6.61885e-05
-0.000191848
2.58624e-05
-0.000100659
-5.92474e-05
-4.43869e-05
-9.28257e-05
-0.000100283
-1.00818e-05
-4.10054e-05
0.000273303
-4.34316e-05
0.000463969
-6.11079e-05
0.000470399
-7.8455e-05
0.00040124
-0.000126844
0.000344494
-0.000179489
0.000246916
-0.000212038
0.000204606
-0.000349136
0.000240892
-0.00034011
0.000132335
-0.000367915
0.000189074
-0.000427678
0.000149444
-0.000410886
0.000150944
-0.000314995
9.78019e-05
-0.000286446
8.83642e-05
-0.000277563
8.08235e-05
-0.000284372
8.94693e-05
-0.000281401
9.63909e-05
-0.000193352
7.17836e-06
-0.000144117
1.69529e-05
-6.29859e-05
-5.52683e-05
-3.68195e-05
-8.54138e-05
-3.4372e-05
-9.52733e-05
-0.000108356
-2.62992e-05
-3.32351e-05
0.000306538
-2.63823e-06
0.000433372
-7.68342e-06
0.000475444
-3.44602e-05
0.000428017
-0.000104561
0.000414595
-0.000185693
0.000328048
-0.000263599
0.000282512
-0.000180316
0.000157609
-0.00032357
0.000275588
-0.000337707
0.000203212
-0.000372907
0.000184644
-0.00031587
9.39063e-05
-0.000307133
8.9065e-05
-0.000291296
7.25271e-05
-0.00031278
0.000102308
-0.000328834
0.000105523
-0.000275903
4.34604e-05
-0.000274478
5.75303e-06
-0.000207841
-4.96845e-05
-0.00014933
-0.000113779
-0.000113362
-0.000121381
-7.98576e-05
-0.000128778
-0.000126382
-6.18309e-05
-5.79192e-05
0.000364457
1.36805e-05
0.000361772
5.0575e-07
0.000488619
-4.40911e-05
0.000472614
-9.35709e-05
0.000464075
-0.000157711
0.000392188
-0.000240564
0.000365365
-0.000265286
0.000182331
-0.000291857
0.00030216
-0.000323317
0.000234672
-0.000331174
0.0001925
-0.000302967
6.56995e-05
-0.00028458
7.06784e-05
-0.000288448
7.63949e-05
-0.000310605
0.000124465
-0.000332543
0.000127462
-0.000336282
4.71993e-05
-0.000297849
-3.26797e-05
-0.000199384
-0.000148149
-0.000116858
-0.000196305
-3.65668e-05
-0.000201673
-4.99456e-05
-0.000115399
-0.000160995
-1.53332e-05
-3.94628e-05
0.00040392
-1.9421e-05
0.000341731
-3.77885e-05
0.000506986
-7.48925e-05
0.000509718
-8.95913e-05
0.000478774
-0.000126335
0.000428932
-0.000124234
0.000363264
-0.000254036
0.000312133
-0.000277781
0.000325905
-0.000300463
0.000257353
-0.000286817
0.000178854
-0.000302602
8.14842e-05
-0.000293859
6.19358e-05
-0.000270699
5.32348e-05
-0.000260655
0.000114421
-0.000212902
7.97091e-05
-0.000155983
-9.71998e-06
-9.70629e-05
-9.15999e-05
-4.61379e-05
-0.000199074
-4.02088e-05
-0.000202234
-4.2066e-05
-0.000199816
-4.46052e-06
-0.000153005
-0.000137818
-2.76369e-05
-5.77313e-05
0.000461651
-6.65342e-05
0.000350533
-9.02365e-05
0.000530688
-0.00011851
0.000537992
-0.000170071
0.000530334
-0.000209284
0.000468144
-0.000208214
0.000362195
-0.000235338
0.000339256
-0.000261123
0.00035169
-0.000141748
0.000137978
-0.000194372
0.000231478
-0.000223932
0.000111044
-0.000251239
8.92435e-05
-0.00024076
4.27555e-05
-0.000187732
6.13929e-05
-0.000120036
1.20133e-05
-3.78574e-05
-9.18989e-05
-8.72466e-06
-0.000120733
-1.31405e-05
-0.000194658
-1.81306e-05
-0.000197244
-2.6348e-05
-0.000191598
-1.68133e-05
-0.00016254
-0.000142602
-1.20301e-05
-4.87406e-05
0.000510392
-0.000113319
0.000415112
-0.00010926
0.00052663
-0.000135851
0.000564583
-0.000180162
0.000574645
-0.000216197
0.000504179
-0.000128299
0.000274298
-0.000228017
0.000438974
-0.000122187
0.00024586
-0.000179716
0.000195507
-0.000192864
0.000244625
-0.000158772
7.69525e-05
-0.000192384
0.000122855
-0.000155458
5.8299e-06
-7.13348e-05
-2.27308e-05
-3.74677e-07
-5.89469e-05
1.91229e-05
-0.000111397
4.64859e-05
-0.000148096
2.12201e-05
-0.000169392
1.18451e-05
-0.000187869
1.06258e-05
-0.000190379
3.9276e-05
-0.00019119
-0.000129387
2.60608e-05
-2.94747e-05
0.000539866
-0.000173525
0.000559162
-9.93899e-05
0.000452495
-0.000116861
0.000582054
-0.000117571
0.000575355
-0.00013588
0.000522488
-0.000239051
0.000377469
-0.000114045
0.000313967
-0.00015481
0.000286625
-0.00017971
0.000220407
-0.000176397
0.000241312
-0.000204027
0.000104583
-0.000170179
8.90071e-05
-8.17902e-05
-8.25594e-05
-2.31095e-05
-8.14118e-05
1.98466e-05
-0.000101903
8.12526e-05
-0.000172803
9.49657e-05
-0.000161809
4.72281e-05
-0.000121654
4.70226e-05
-0.000187663
4.26707e-05
-0.000186027
8.31627e-06
-0.000156835
-0.000196721
7.56503e-05
-2.75373e-05
0.000567404
-5.85133e-05
0.000590139
-0.000147258
0.000541239
-0.000143242
0.000578039
-0.000194393
0.000626506
-7.89199e-05
0.000407015
-0.000195333
0.000493882
-0.000189625
0.00030826
-0.000144526
0.000241527
-0.000110094
0.000185975
-0.000122347
0.000253566
-0.000159592
0.000141828
-8.72378e-05
1.66526e-05
-4.72144e-05
-0.000122583
3.0309e-05
-0.000158935
0.000109315
-0.000180909
0.000123119
-0.000186607
9.06682e-05
-0.000129358
0.000105003
-0.000135989
6.10916e-05
-0.000143752
1.1208e-05
-0.000136143
5.18635e-05
-0.000197491
-0.000178185
3.33284e-05
-3.86743e-05
0.000606078
-5.14261e-05
0.000602891
-9.9587e-05
0.0005894
-0.000119719
0.000598172
-9.6778e-05
0.000603565
-0.000117388
0.000427626
-0.0001756
0.000552094
-0.000136696
0.000269356
-0.000101819
0.00020665
-0.000128934
0.00021309
-8.20642e-05
0.000206696
-4.11465e-05
0.000100911
1.16558e-05
-3.61496e-05
5.56587e-05
-0.000166585
7.81363e-05
-0.000181413
5.31914e-05
-0.000155964
5.6236e-05
-0.000189651
0.00012416
-0.000197282
0.000115357
-0.000127186
9.81629e-05
-0.000126557
8.56167e-05
-0.000123597
6.49305e-05
-0.000176805
-0.000162982
4.97268e-05
-5.19883e-05
0.000658067
-7.10478e-05
0.000621951
-3.57566e-05
0.00055411
-5.14575e-05
0.000613872
-2.54211e-05
0.000577529
-0.000141416
0.000543621
-0.000115334
0.000526011
-8.3102e-05
0.000237124
-4.5698e-05
0.000169247
-6.0642e-07
0.000167999
4.27589e-05
0.000163331
0.000116224
2.7446e-05
0.000161572
-8.14979e-05
0.000114376
-0.000119389
0.000127038
-0.000194075
0.000143328
-0.000172254
0.00012007
-0.000166394
9.6682e-05
-0.000173893
0.000129423
-0.000159927
0.000119108
-0.000116242
0.000102441
-0.00010693
8.44068e-05
-0.000158771
-0.000157269
7.86938e-05
-7.1962e-05
0.000730029
-5.12821e-05
0.000601271
-3.3463e-05
0.000536291
-1.7567e-05
0.000597976
-2.19885e-05
0.00058195
-8.31648e-05
0.000604797
-9.19282e-05
0.000534775
-0.000144771
0.000289966
-5.83798e-05
8.28563e-05
6.57312e-05
4.38885e-05
0.000149154
7.99091e-05
0.000191993
-1.53929e-05
0.000185223
-7.47279e-05
0.000178632
-0.000112797
0.000170806
-0.000186249
0.00016752
-0.000168968
0.000131355
-0.000130229
8.73508e-05
-0.000129889
8.37458e-05
-0.000156322
0.000121765
-0.000154262
0.000127207
-0.000112372
7.19276e-05
-0.000103492
-0.000149749
6.44078e-05
-5.34244e-05
0.000783454
-4.17878e-05
0.000589634
-4.29478e-05
0.00053745
-2.96497e-05
0.000584678
-2.51793e-05
0.00057748
-1.34695e-05
0.000593087
-3.26547e-05
0.000553959
2.68094e-05
0.000230502
3.23187e-05
7.73468e-05
6.60894e-05
1.0118e-05
0.000175203
-2.92044e-05
0.000197832
-3.8022e-05
0.000197252
-7.41476e-05
0.000220906
-0.000136452
0.000192129
-0.000157472
0.000141077
-0.000117917
0.000127463
-0.000116614
0.000139822
-0.000142248
9.53735e-05
-0.000111874
4.4067e-05
-0.000102955
6.79747e-05
-0.000136279
0.000111779
-0.000147296
-0.000106514
6.85444e-05
-3.10927e-05
0.000814546
-5.82748e-05
0.000616816
-6.03873e-05
0.000539563
-6.21891e-05
0.000586479
-3.77298e-05
0.000553021
1.80712e-05
0.000537287
6.20709e-05
0.000509959
9.13564e-05
0.000201216
0.000116719
5.19846e-05
0.000135963
-9.12628e-06
0.000158265
-5.1506e-05
0.000200648
-8.04051e-05
0.000212852
-8.63521e-05
0.000198413
-0.000122013
0.000159705
-0.000118764
0.000140584
-9.87961e-05
0.000157647
-0.000133678
0.000113089
-9.76898e-05
9.74563e-05
-9.62409e-05
0.000124981
-0.00013048
0.000119344
-0.000130642
6.25843e-05
-9.05362e-05
-9.75943e-05
5.36642e-05
-3.67756e-05
0.000851322
-8.41958e-05
0.000664236
-9.90875e-05
0.000554455
-8.79869e-05
0.000575378
-5.27877e-05
0.000517821
1.67201e-05
0.000467779
0.000100628
0.000426052
0.000147772
0.000154072
0.000176539
2.32182e-05
0.000183168
-1.57538e-05
0.000212089
-8.04264e-05
0.000213547
-8.18635e-05
0.000209662
-8.24675e-05
0.000195795
-0.000108146
0.000138793
-6.1763e-05
0.000144588
-0.000104591
0.000128183
-0.000117274
0.000110622
-8.01286e-05
0.00012666
-0.000112279
0.00012061
-0.000124431
8.1183e-05
-9.12146e-05
6.79205e-05
-7.72738e-05
-0.000121559
9.18848e-05
-4.48803e-05
0.000896202
-0.000101605
0.000720961
-0.000121957
0.000574808
-9.95897e-05
0.00055301
-7.42667e-05
0.000492497
1.12754e-05
0.000382237
0.000127019
0.000310308
0.000196023
8.50692e-05
0.000195125
2.41168e-05
0.000185347
-5.97572e-06
0.000138981
-3.40595e-05
0.000133937
-7.68193e-05
0.000120715
-6.92457e-05
0.000110152
-9.75838e-05
0.000155741
-0.000107352
0.000123143
-7.19936e-05
0.000108982
-0.000103113
0.000121495
-9.26421e-05
0.000107747
-9.85305e-05
5.21053e-05
-6.87893e-05
5.90684e-05
-9.81778e-05
9.04076e-05
-0.000108613
-0.000101362
7.02109e-05
-3.33144e-05
0.000929517
-9.55897e-05
0.000783236
-0.000112199
0.000591417
-9.4273e-05
0.000535085
-6.65954e-05
0.000464819
1.80731e-05
0.000297568
0.000168733
0.000159648
0.000152593
0.000101209
0.000173118
3.59194e-06
0.000225067
-5.79247e-05
0.000218533
-2.75258e-05
0.000199744
-5.80303e-05
0.000217378
-8.68806e-05
0.00018759
-6.7796e-05
0.000140238
-6.00009e-05
0.000147518
-7.92734e-05
0.000135009
-9.06052e-05
0.000121181
-7.88133e-05
0.000103547
-8.08973e-05
0.000117891
-8.3133e-05
0.000109523
-8.981e-05
6.95172e-05
-6.86073e-05
-0.000102185
7.03405e-05
3.30002e-05
0.000896517
-3.42238e-05
0.000850459
-6.70763e-05
0.000624269
-6.06364e-05
0.000528645
-1.0669e-06
0.00040525
0.000107776
0.000188725
0.000208537
5.88876e-05
0.000254437
5.53097e-05
0.000244007
1.40226e-05
0.000211812
-2.573e-05
0.00020917
-2.48843e-05
0.00018834
-3.72001e-05
0.0001262
-2.47406e-05
0.000132812
-7.44089e-05
0.000168992
-9.61813e-05
0.000135
-4.5282e-05
0.000126289
-8.18942e-05
0.000118741
-7.12661e-05
9.90922e-05
-6.12483e-05
9.2624e-05
-7.66649e-05
8.34948e-05
-8.06808e-05
7.7259e-05
-6.23715e-05
-9.65715e-05
7.16453e-05
7.83024e-05
0.000818214
9.72896e-05
0.000831472
8.1074e-05
0.000640485
9.38812e-05
0.000515836
0.000166102
0.00033303
0.000238797
0.00011603
0.000257115
4.05702e-05
0.000254109
5.83158e-05
0.000264853
3.27891e-06
0.000238379
7.44679e-07
0.000218918
-5.42337e-06
0.000187179
-5.46049e-06
0.000178433
-1.59947e-05
0.000116951
-1.29282e-05
9.04547e-05
-6.96851e-05
0.000140346
-9.51741e-05
0.000114497
-5.60452e-05
8.89508e-05
-4.57205e-05
0.000106362
-7.866e-05
9.47172e-05
-6.50197e-05
6.03546e-05
-4.63183e-05
6.68327e-05
-6.88496e-05
-8.19991e-05
5.22603e-05
0.000116301
0.000701913
0.000189525
0.000758249
0.00022557
0.000604439
0.000239278
0.00050213
0.000261054
0.000311254
0.000201306
0.000175777
0.000220654
2.12223e-05
0.000251588
2.73811e-05
0.000248879
5.98838e-06
0.000226926
2.2698e-05
0.000169863
5.16402e-05
0.000180501
-1.60987e-05
0.000174704
-1.01975e-05
0.000176021
-1.42455e-05
0.000140997
-3.46619e-05
7.40477e-05
-2.82257e-05
8.13084e-05
-6.33063e-05
0.000114217
-7.86289e-05
6.43886e-05
-2.88322e-05
5.19168e-05
-5.25479e-05
8.03667e-05
-7.47682e-05
6.9188e-05
-5.7671e-05
-8.10344e-05
6.82234e-05
0.000194428
0.000507486
0.00026174
0.000690937
0.000284433
0.000581748
0.000329259
0.000457305
0.000353932
0.00028658
0.000351222
0.000178487
0.00021814
0.000154305
0.00022436
2.1161e-05
0.000172632
5.77166e-05
0.000154877
4.04533e-05
0.000193615
1.29032e-05
0.000180467
-2.95119e-06
0.000165043
5.22701e-06
0.000155162
-4.36522e-06
0.000138154
-1.76546e-05
0.000127334
-1.74068e-05
7.9328e-05
-1.53004e-05
6.71626e-05
-6.64638e-05
7.0057e-05
-3.17268e-05
8.37291e-05
-6.62201e-05
5.51986e-05
-4.62377e-05
6.85337e-05
-7.10061e-05
-4.71385e-05
3.46378e-05
0.000156292
0.000351193
0.000269346
0.000577886
0.000283509
0.000567585
0.000261323
0.000479491
0.000347665
0.00020024
0.000264724
0.000261429
0.000324078
9.4952e-05
0.000282426
6.28127e-05
0.000227349
0.000112794
0.000242563
2.52406e-05
0.000209751
4.5716e-05
0.000183025
2.3775e-05
0.000168521
1.97301e-05
0.000160617
3.53817e-06
0.000133064
9.89837e-06
0.000116455