/*--------------------------------*- C++ -*----------------------------------*\
| =========                 |                                                 |
| \\      /  F ield         | foam-extend: Open Source CFD                    |
|  \\    /   O peration     | Version:     4.1                                |
|   \\  /    A nd           | Web:         http://www.foam-extend.org         |
|    \\/     M anipulation  |                                                 |
\*---------------------------------------------------------------------------*/
FoamFile
{
    version     2.0;
    format      ascii;
    class       surfaceScalarField;
    location    "0.9";
    object      phi_0;
}
// * * * * * * * * * * * * * * * * * * * * * * * * * * * * * * * * * * * * * //

dimensions      [0 3 -1 0 0 0 0];

internalField   nonuniform List<scalar> 
4432
(
-3.92776e-06
3.92776e-06
-2.04946e-05
1.65668e-05
-3.02458e-05
9.75119e-06
-3.52998e-05
5.05402e-06
-2.00739e-05
-1.52259e-05
-6.05576e-06
-1.40181e-05
-4.55507e-06
-1.50068e-06
-1.43193e-06
-3.12314e-06
5.39254e-06
-6.82446e-06
-1.56542e-05
2.10467e-05
-1.89621e-05
3.30787e-06
-1.78521e-05
-1.10999e-06
-1.48099e-05
-3.04223e-06
-5.35109e-06
-9.45876e-06
-3.55334e-06
-1.79775e-06
-1.5127e-06
-2.04064e-06
-9.18241e-09
-1.50352e-06
-9.28306e-07
9.19124e-07
-1.83653e-06
9.08225e-07
-2.60505e-06
7.68516e-07
2.09369e-07
-2.81441e-06
-1.03908e-06
1.24845e-06
-1.03908e-06
-1.02539e-05
1.41817e-05
-2.06106e-05
2.69235e-05
-2.1733e-05
1.08737e-05
-3.71924e-05
2.05135e-05
-4.56519e-05
-6.76647e-06
-5.48719e-05
-4.79808e-06
-4.19627e-05
-1.44098e-05
-3.51814e-05
-9.90444e-06
-3.94932e-05
-2.51263e-06
-1.33503e-05
-5.09618e-06
-2.36914e-05
1.3649e-05
-1.2643e-05
-1.21584e-05
-1.75662e-05
1.88093e-06
-1.08844e-05
-1.61405e-05
-6.15843e-06
-6.52376e-06
-1.74967e-06
-6.44939e-06
-9.60191e-07
-2.293e-06
8.56337e-07
-8.97403e-07
1.62325e-06
1.41311e-07
1.35923e-06
1.03255e-06
1.32442e-06
-2.7796e-06
2.18147e-06
3.91404e-07
1.1424e-06
-2.63144e-05
4.04961e-05
-2.04019e-05
2.1011e-05
-3.66263e-05
2.70981e-05
-3.45069e-05
1.8394e-05
-3.57843e-05
-5.48908e-06
-4.60025e-05
5.42011e-06
-3.74649e-05
-2.29474e-05
-2.84882e-05
-1.88811e-05
-2.12439e-05
-9.7569e-06
-9.25207e-06
-1.7088e-05
-1.91847e-05
2.35816e-05
-1.72542e-05
-1.40888e-05
-1.50556e-05
-3.17702e-07
-1.51574e-05
-1.60387e-05
-3.86407e-06
-1.78171e-05
-2.47546e-06
-7.838e-06
-1.79373e-06
-2.97473e-06
2.74885e-07
-2.96602e-06
1.90319e-06
-1.48699e-06
3.2364e-06
-3.00654e-07
1.83753e-06
-1.38072e-06
1.78149e-06
4.47441e-07
2.9239e-06
-1.67856e-05
5.72817e-05
-2.09245e-05
2.51499e-05
-3.7523e-05
4.36966e-05
-2.20255e-05
2.89658e-06
-3.72919e-05
9.77731e-06
-4.12419e-05
9.37012e-06
-3.24637e-05
-3.17256e-05
-2.59855e-05
-2.53593e-05
-2.0766e-05
-1.49764e-05
-2.67433e-05
-1.11107e-05
-2.83833e-05
2.52215e-05
-3.7439e-05
-5.03314e-06
-3.3038e-05
-4.71867e-06
-9.76685e-06
-3.93098e-05
-6.7151e-06
-2.08689e-05
-8.57668e-06
-5.97642e-06
-4.12736e-06
-7.42405e-06
-4.494e-07
-6.64397e-06
1.84755e-06
-3.78394e-06
3.17652e-06
-1.62961e-06
1.70458e-06
9.12185e-08
5.25623e-07
1.6264e-06
3.44952e-06
-1.85128e-05
7.57945e-05
-3.44499e-05
4.10871e-05
-3.42753e-05
4.3522e-05
-3.82033e-05
6.82453e-06
-4.61618e-05
1.77358e-05
-5.02082e-05
1.34165e-05
-6.26881e-05
-1.92457e-05
-6.06804e-05
-2.7367e-05
-5.15229e-05
-2.41339e-05
-4.01399e-05
-2.24937e-05
-4.23644e-05
2.74461e-05
-3.9778e-05
-7.61952e-06
-1.85901e-05
-2.59067e-05
-2.17369e-05
-3.6163e-05
-8.26644e-06
-3.43393e-05
-7.56602e-06
-6.67684e-06
-3.58395e-06
-1.14061e-05
-1.0452e-06
-9.18272e-06
1.38154e-06
-6.21068e-06
7.52486e-07
-1.00055e-06
9.06528e-07
-6.28189e-08
5.52428e-07
1.98051e-06
4.00195e-06
-1.57704e-05
9.15649e-05
-1.9289e-05
4.46056e-05
-2.61852e-06
2.68516e-05
-1.40047e-05
1.82107e-05
-3.75528e-05
4.1284e-05
-4.2455e-05
1.83187e-05
-3.2026e-05
-2.96746e-05
-3.60938e-05
-2.32993e-05
-2.92265e-05
-3.10012e-05
-3.9169e-05
-1.25511e-05
-2.47559e-05
1.30329e-05
-2.09436e-05
-1.14318e-05
-3.40885e-05
-1.27617e-05
-1.15705e-05
-5.86811e-05
-5.02527e-06
-4.08845e-05
-7.30777e-06
-4.39434e-06
-4.60495e-06
-1.41089e-05
-3.01959e-06
-1.07681e-05
2.11098e-06
-1.13412e-05
1.2614e-06
-1.50966e-07
2.41521e-06
-1.21663e-06
1.97133e-07
4.19859e-06
4.19909e-06
-3.34167e-05
0.000124982
-2.2145e-05
3.33339e-05
-1.50611e-05
1.97678e-05
-3.56794e-05
3.8829e-05
-3.35558e-05
3.91604e-05
-3.05419e-05
1.53048e-05
-3.94949e-05
-2.07216e-05
-2.67022e-05
-3.6092e-05
-4.26909e-05
-1.50125e-05
-3.51904e-05
-2.00516e-05
-2.21033e-05
-5.41246e-08
-1.82018e-05
-1.53333e-05
-2.82284e-05
-2.73506e-06
-1.11759e-05
-7.57336e-05
-1.98778e-05
-3.21825e-05
-1.66884e-05
-7.58371e-06
-1.0211e-05
-2.05864e-05
-1.82616e-06
-1.91529e-05
2.59197e-06
-1.57594e-05
1.3441e-06
1.09692e-06
2.55957e-06
-2.4321e-06
2.83768e-07
6.4744e-06
4.48286e-06
-6.57475e-06
0.000131556
-2.55786e-07
2.70149e-05
-1.28835e-05
3.23955e-05
-2.47253e-05
5.06707e-05
-7.56232e-06
2.19974e-05
-5.87328e-06
1.36158e-05
-2.06363e-05
-5.95856e-06
-1.71758e-05
-3.95525e-05
-2.81875e-05
-4.00087e-06
-1.29647e-05
-3.52743e-05
-1.95568e-05
6.53797e-06
-1.92877e-05
-1.56025e-05
-2.75313e-05
5.5085e-06
-1.40429e-05
-8.9222e-05
-2.2596e-05
-2.36295e-05
-1.89864e-05
-1.11933e-05
-5.12882e-06
-3.44439e-05
-1.33289e-06
-2.29488e-05
-3.01842e-06
-1.40738e-05
3.94039e-06
-5.86189e-06
1.30375e-05
-1.15292e-05
3.31372e-06
1.61982e-05
7.79658e-06
-5.28133e-05
5.28133e-05
-7.47723e-05
2.19589e-05
-9.99701e-05
2.51979e-05
-0.000121272
2.13016e-05
-0.000117122
-4.14996e-06
-0.000118911
1.78883e-06
-0.000126941
8.03019e-06
-8.9042e-05
-3.78988e-05
-8.66698e-05
-2.3722e-06
-7.9961e-05
-6.70886e-06
-8.28925e-05
2.93153e-06
-0.00013284
4.99471e-05
-0.000127725
-5.11475e-06
-0.000123197
-4.5278e-06
-0.000121897
-1.30007e-06
-0.000101542
-2.03553e-05
-4.46966e-05
-5.68452e-05
-4.36209e-05
-1.0757e-06
-4.36209e-05
-2.34466e-05
7.62599e-05
-6.44378e-05
6.295e-05
-8.81572e-05
4.89174e-05
-7.03577e-05
3.50209e-06
-0.000110238
3.57302e-05
-0.000113248
4.79946e-06
-7.6965e-05
-2.82533e-05
-8.88875e-05
-2.59762e-05
-8.65317e-05
-4.72803e-06
-0.000133036
3.97951e-05
-0.000128245
-1.85894e-06
-7.60216e-05
-2.27648e-06
-0.000115174
3.40381e-05
-0.000108751
-1.09509e-05
-6.03705e-05
-4.9681e-05
-7.83125e-05
-2.41326e-06
-6.16326e-05
-7.35251e-05
-3.04078e-05
-3.23005e-05
-7.40287e-05
-2.51496e-05
0.00010141
-3.77836e-05
7.55839e-05
-3.38333e-05
4.49672e-05
-6.29373e-05
3.2606e-05
-0.000113257
8.60501e-05
-0.000109977
1.51945e-06
-0.000119821
-1.84095e-05
-0.000129731
-1.60665e-05
-0.000127049
-7.40988e-06
-0.000117576
3.03222e-05
-0.000112964
-6.4707e-06
-0.000111379
-3.86105e-06
-0.000105964
2.86225e-05
-9.03213e-05
-2.65935e-05
-9.17245e-05
-4.82778e-05
-6.85617e-05
-2.55761e-05
-4.1832e-05
-0.000100255
-1.40575e-05
-6.0075e-05
-8.80862e-05
-2.02137e-05
0.000121623
-3.96173e-05
9.49875e-05
-7.30145e-05
7.83644e-05
-0.000105647
6.5239e-05
-6.25096e-05
4.29122e-05
-0.000112297
5.13069e-05
-0.000120085
-1.06215e-05
-7.94335e-05
-5.67181e-05
-0.000120625
3.37815e-05
-7.00073e-05
-2.02954e-05
-0.000104631
2.81529e-05
-9.45957e-05
-1.38962e-05
-4.2367e-05
-2.36062e-05
-4.31608e-05
-2.57997e-05
-3.03869e-05
-6.10517e-05
-8.31387e-06
-4.76491e-05
-1.85034e-05
-9.00652e-05
-5.13256e-06
-7.34458e-05
-9.32187e-05
-2.19493e-05
0.000143573
-4.56111e-05
0.000118649
-6.56222e-05
9.83755e-05
-5.33829e-05
5.29997e-05
-9.12487e-05
8.0778e-05
-8.36952e-05
4.37534e-05
-5.98833e-05
-3.44334e-05
-0.000110718
-5.88375e-06
-6.33942e-05
-1.35418e-05
-9.11908e-05
7.50114e-06
-6.90891e-05
6.05111e-06
-4.86807e-05
-3.43046e-05
-4.44643e-05
-2.78226e-05
-8.28369e-06
-6.19803e-05
2.70263e-06
-7.2038e-05
1.02859e-05
-5.52323e-05
5.88367e-06
-8.5663e-05
1.46211e-05
-8.21832e-05
-7.85976e-05
-2.35863e-05
0.000167159
-4.37306e-05
0.000138794
-5.40651e-05
0.00010871
-7.21261e-05
7.10607e-05
-6.41455e-05
7.27974e-05
-5.28763e-05
3.24843e-05
-6.75052e-05
-1.98045e-05
-7.44719e-05
1.08294e-06
-7.31658e-05
-1.48479e-05
-3.59552e-05
-2.97095e-05
-2.91484e-05
-7.5577e-07
-7.09229e-06
-5.63606e-05
-2.07702e-06
-3.28379e-05
2.69451e-05
-9.10024e-05
1.7455e-05
-6.25479e-05
4.00182e-05
-7.77956e-05
2.20169e-05
-6.76617e-05
1.43664e-05
-7.45327e-05
-6.42312e-05
-4.75601e-05
0.000214719
-5.24376e-05
0.000143671
-4.85418e-05
0.000104814
-2.585e-05
4.83689e-05
-2.27613e-05
6.97087e-05
-3.4554e-05
4.4277e-05
-5.21072e-05
-2.25139e-06
-4.26934e-05
-8.33083e-06
-3.10717e-05
-2.64696e-05
-3.03803e-05
-3.04009e-05
-3.89455e-06
-2.72415e-05
3.90347e-06
-6.41587e-05
1.69129e-05
-4.58473e-05
4.84156e-05
-0.000122505
5.29492e-05
-6.70815e-05
5.19477e-05
-7.67941e-05
2.50916e-05
-4.08056e-05
1.67577e-05
-6.61988e-05
-4.74735e-05
-6.70781e-05
0.000281797
-7.14475e-05
0.00014804
-2.32068e-05
5.65735e-05
-2.0705e-05
4.58672e-05
-1.08431e-05
5.98467e-05
-1.16609e-05
4.50948e-05
-1.96987e-05
5.78637e-06
-3.09023e-05
2.87279e-06
-2.39716e-05
-3.34004e-05
-8.99314e-06
-4.53793e-05
-5.97543e-06
-3.02592e-05
2.6842e-05
-9.69761e-05
2.7398e-05
-4.64033e-05
3.0528e-05
-0.000125635
6.21502e-05
-9.87037e-05
5.75293e-05
-7.21732e-05
5.15095e-05
-3.47858e-05
1.89449e-05
-3.36343e-05
-2.85286e-05
-6.36598e-07
0.000132193
-6.70673e-06
3.30851e-05
-2.41901e-05
4.98789e-05
-1.73238e-05
4.38045e-05
-2.40046e-05
2.86783e-05
-2.67884e-05
1.63995e-05
-3.18595e-05
-8.87393e-07
-7.21372e-05
7.25209e-07
-6.77311e-05
-8.40696e-06
-8.80483e-05
-1.49572e-05
-4.95913e-05
-3.1919e-05
-2.55554e-05
-3.96383e-05
-1.27315e-05
-7.31539e-06
-5.4995e-05
-4.69585e-05
-5.17204e-05
-2.69042e-05
-3.62302e-05
-2.66834e-05
-2.5061e-05
-4.56132e-05
-2.67975e-05
-2.12123e-05
-1.20683e-05
-2.8803e-05
2.12724e-05
-3.92027e-05
9.66495e-06
7.83096e-08
-5.41688e-05
8.00319e-05
4.6692e-05
-9.30643e-05
2.37147e-05
0.000108478
2.60593e-06
5.41939e-05
-1.10976e-05
6.35824e-05
-1.37826e-05
4.64895e-05
-1.03838e-05
2.52795e-05
-4.24276e-06
1.02584e-05
-1.26493e-05
7.51912e-06
-2.49915e-05
1.30674e-05
-4.53155e-05
1.1917e-05
-7.94802e-05
1.92075e-05
-6.87677e-05
-4.26315e-05
-8.18983e-05
-2.65077e-05
-6.10223e-05
-2.81914e-05
-9.50504e-05
-1.29303e-05
-9.28382e-05
-2.91164e-05
-9.84805e-05
-2.10411e-05
-0.000103671
-4.04223e-05
-0.000108255
-1.66288e-05
-0.000120025
-1.70333e-05
-0.000145165
-1.40626e-05
-0.000177406
3.23192e-05
-0.000128788
3.14144e-05
9.92201e-05
-0.000181316
-1.91011e-05
0.000127579
-2.5055e-05
6.01478e-05
1.6515e-07
3.83622e-05
1.16741e-05
3.49806e-05
-5.61149e-06
4.25651e-05
-1.09735e-05
1.56205e-05
-7.10088e-06
3.64648e-06
-6.20173e-06
1.21683e-05
-1.55293e-05
2.12446e-05
-3.25642e-05
3.62425e-05
-5.46463e-05
-2.05494e-05
-7.22217e-05
-8.93233e-06
-0.000105314
4.90118e-06
-0.000126931
8.68638e-06
-0.000147892
-8.15521e-06
-0.000143192
-2.57412e-05
-0.000149982
-3.36326e-05
-0.00018488
1.82699e-05
-0.00022013
1.82162e-05
-0.000226176
-8.01698e-06
-0.000222738
2.88817e-05
-0.000220315
2.89914e-05
8.40719e-05
-0.000205167
-1.82765e-05
0.000145856
-2.29198e-05
6.47911e-05
-2.49816e-05
4.0424e-05
-9.4424e-06
1.94414e-05
-1.40784e-05
4.72011e-05
-4.0545e-05
4.20871e-05
-4.79303e-05
1.10318e-05
-2.18045e-05
-1.39575e-05
-8.57365e-06
8.01371e-06
-1.27556e-05
4.04245e-05
-6.91604e-05
3.58554e-05
-0.000101627
2.35345e-05
-0.000133975
3.72493e-05
-0.000154017
2.87282e-05
-0.00015834
-3.83204e-06
-0.000162314
-2.17671e-05
-0.000166084
-2.9863e-05
-0.000131057
-1.67568e-05
-0.000146432
3.35909e-05
-0.000201514
4.70646e-05
-0.000186737
1.41051e-05
-0.000180206
2.246e-05
1.06654e-05
-0.000106799
-7.68312e-06
0.000153539
1.01626e-05
4.69454e-05
7.43888e-07
4.98427e-05
-1.6032e-05
3.62173e-05
-2.31642e-05
5.43334e-05
-3.69088e-05
5.58317e-05
-6.53461e-05
3.9469e-05
-5.81415e-05
-2.11621e-05
-7.93295e-05
2.92017e-05
-8.0865e-05
4.196e-05
-0.000121541
7.65319e-05
-0.000122316
2.43092e-05
-0.000121911
3.68443e-05
-0.000145476
5.22934e-05
-0.000117159
-3.21498e-05
-0.000103337
-3.55886e-05
-0.000139766
6.5656e-06
-0.00016155
5.02805e-06
-0.00013919
1.12302e-05
-0.000125058
3.29331e-05
-0.000169847
5.88942e-05
-0.000171252
2.38651e-05
2.48665e-05
-0.000185453
7.87574e-06
0.000145663
5.10543e-06
4.97157e-05
1.35163e-06
5.35965e-05
-1.91064e-05
5.66753e-05
-1.89069e-05
5.4134e-05
-2.15006e-05
5.84253e-05
-9.22422e-06
2.71927e-05
-4.58797e-05
1.54935e-05
-9.5423e-05
7.8745e-05
-0.000100013
4.65502e-05
-7.55501e-05
5.20688e-05
-9.9145e-05
4.79041e-05
-0.000111104
4.88038e-05
-8.34004e-05
2.45894e-05
-9.65591e-05
-1.89911e-05
-0.000139655
7.50739e-06
-0.000148584
1.54943e-05
-0.000165808
2.22524e-05
-0.000189023
3.44453e-05
-0.000197424
4.13343e-05
-0.000211926
7.3396e-05
-0.000232757
4.46958e-05
5.95888e-05
-0.000267479
2.15425e-05
0.000124121
-4.92937e-07
7.17512e-05
-5.68695e-06
5.87906e-05
9.46752e-06
4.15208e-05
-1.9824e-06
6.5584e-05
-2.84801e-05
8.49231e-05
-4.49904e-05
4.3703e-05
-7.54379e-05
4.5941e-05
-6.84181e-05
7.17252e-05
-6.41879e-05
4.23201e-05
-7.6912e-05
6.47929e-05
-0.000126542
9.7534e-05
-0.000129413
5.16747e-05
-0.000141201
3.63777e-05
-0.000153117
-7.07518e-06
-0.000152433
6.82283e-06
-0.000162763
2.58242e-05
-0.000181886
4.13758e-05
-0.000192937
4.54963e-05
-0.000220202
6.85991e-05
-0.000236078
8.92723e-05
-0.00027445
8.30679e-05
9.33138e-05
-0.000308175
1.75529e-05
0.000106568
1.21601e-05
7.71439e-05
5.16829e-06
6.57824e-05
4.94496e-06
4.17442e-05
3.80721e-06
6.67218e-05
-1.41896e-05
0.00010292
-5.03229e-05
7.98362e-05
-5.94976e-05
5.51158e-05
-5.50724e-05
6.73e-05
-7.72702e-05
6.45179e-05
-6.28224e-05
5.03452e-05
-7.78483e-05
0.00011256
-0.000103484
7.73102e-05
-0.000135167
6.80608e-05
-0.000148637
6.39544e-06
-0.000176024
3.42094e-05
-0.000205027
5.48271e-05
-0.000214357
5.0706e-05
-0.000235049
6.61887e-05
-0.00025408
8.76294e-05
-0.000282907
0.0001181
-0.000332739
0.0001329
9.71204e-05
-0.000336546
3.20682e-05
7.44998e-05
4.73818e-05
6.18303e-05
1.45087e-05
9.86556e-05
1.26456e-05
4.36072e-05
-1.65455e-05
9.59129e-05
-2.05956e-05
0.00010697
-2.07262e-05
7.99669e-05
-2.63847e-05
6.07743e-05
-3.30887e-05
7.40041e-05
-3.46636e-05
6.60927e-05
-2.84544e-05
4.41361e-05
-5.47291e-05
0.000138835
-9.15457e-05
0.000114127
-7.76027e-05
5.41179e-05
-0.000152952
8.1745e-05
-0.000205743
8.70002e-05
-0.000234442
8.35262e-05
-0.000270879
8.71429e-05
-0.000289549
8.48586e-05
-0.000320057
0.000118137
-0.000330086
0.000128129
-0.000325253
0.000128067
0.000130949
-0.000359082
4.88004e-06
6.96197e-05
5.39499e-06
6.13153e-05
1.40031e-05
9.00475e-05
-8.36801e-06
6.59784e-05
-1.36331e-05
0.000101178
-1.25709e-05
0.000105908
1.08748e-05
5.65211e-05
1.58523e-05
5.57968e-05
3.6814e-05
5.30424e-05
-2.27205e-05
0.000125627
-6.87866e-05
9.02022e-05
-3.82907e-05
0.000108339
-6.07514e-05
0.000136588
-0.000150117
0.000143483
-0.000189728
0.000121357
-0.000230714
0.000127985
-0.000226817
7.96296e-05
-0.000266779
0.000127105
-0.000321441
0.000139521
-0.00033022
0.000126917
-0.000292796
9.07054e-05
-0.000262356
9.7627e-05
0.000144785
-0.000276192
8.2109e-06
6.14088e-05
-3.14519e-05
0.000100978
-1.0463e-05
6.90586e-05
-2.8368e-05
8.38833e-05
-4.03242e-05
0.000113134
-4.00082e-05
0.000105592
-4.40361e-05
6.0549e-05
-8.82066e-05
9.99674e-05
-8.70405e-05
5.18763e-05
-8.21071e-05
0.000120694
-0.000110488
0.000118583
-0.000173984
0.000171835
-0.000203579
0.000166182
-0.000139163
7.90671e-05
-0.000157871
0.000140065
-0.000174031
0.000144145
-0.000255952
0.000161551
-0.000262985
0.000134137
-0.000207305
8.38418e-05
-0.00018589
0.000105502
-0.000279832
0.000184647
-0.000286747
0.000104542
0.000150816
-0.000292779
-6.87522e-06
6.82841e-05
-5.88401e-05
0.000152943
-0.000124918
0.000135136
-0.000232293
0.000191258
-0.000269268
0.00015011
-0.000260029
9.63521e-05
-0.000243366
4.38865e-05
-0.00024386
0.000100461
-0.000267702
7.57177e-05
-0.000186923
3.99151e-05
-0.000170954
0.000102614
-0.000157222
0.000158103
-0.000160777
0.000169737
-0.000283868
0.000202159
-0.000307374
0.00016357
-0.000274793
0.000111564
-0.000276268
0.000163026
-0.000288262
0.000146131
-0.000309182
0.000104762
-0.000313033
0.000109353
-0.000298919
0.000170533
-0.000304971
0.000110594
3.82234e-05
-0.000192378
-1.51996e-05
8.34836e-05
-7.47678e-05
0.000212511
-0.000244058
0.000304427
-0.000289317
0.000236517
-0.000279246
0.000140038
-0.000277017
9.4123e-05
-0.000282163
4.90333e-05
-0.00022414
4.24382e-05
-0.00023916
9.07379e-05
-0.000343009
0.000143763
-0.00037295
0.000132555
-0.000351972
0.000137126
-0.000329704
0.000147469
-0.000238147
0.000110602
-0.000199907
0.000125329
-0.000328919
0.000240577
-0.000357556
0.000191663
-0.000319689
0.000108264
-0.000329482
0.000114555
-0.000348029
0.0001279
-0.000331891
0.000154395
-0.000292048
7.07509e-05
1.16009e-05
-0.000265426
-5.47422e-05
0.000138226
-0.000166
0.000323769
-0.000245333
0.000383759
-0.00029118
0.000282365
-0.000264823
0.000113681
-0.000301458
0.000130758
-0.000357494
0.000105069
-0.000405648
9.05927e-05
-0.000385675
7.07645e-05
-0.000382761
0.00014085
-0.000400431
0.000150225
-0.000410091
0.000146786
-0.000399611
0.000136989
-0.000432999
0.00014399
-0.000412691
0.000105021
-0.000269376
9.72634e-05
-0.000262709
0.000184995
-0.000338636
0.000184192
-0.000354959
0.000130878
-0.000341218
0.000114158
-0.000274359
8.75368e-05
-0.000213401
9.79245e-06
-1.93288e-05
-0.000182471
-4.57486e-05
0.000183974
-0.000109077
0.000387097
-0.000115644
0.000390326
-0.000149937
0.000316658
-0.00029432
0.000258064
-0.000328441
0.000164879
-0.000368619
0.000145248
-0.000398105
0.000120079
-0.000419588
9.22469e-05
-0.000431467
0.000152729
-0.000455518
0.000174276
-0.00047329
0.000164558
-0.000420528
8.42269e-05
-0.000415498
0.00013896
-0.000432665
0.000122188
-0.000454802
0.000119401
-0.000408124
0.000138317
-0.000346133
0.000122201
-0.000305684
9.04292e-05
-0.000261976
7.04504e-05
-0.000211393
3.6953e-05
-0.000169578
-3.20218e-05
-6.13534e-05
-0.000127554
-4.37079e-05
0.000227682
-0.000105332
0.000448721
-0.000160361
0.000445355
-0.000228898
0.000385195
-0.000276865
0.000306031
-0.000312359
0.000200373
-0.000343233
0.000176122
-0.000328764
0.00010561
-0.00037986
0.000143342
-0.000389098
0.000161967
-0.000305054
9.02319e-05
-0.000309345
0.000168849
-0.00042092
0.000195802
-0.000399285
0.000117325
-0.000365681
8.85847e-05
-0.000327693
8.14117e-05
-0.00028842
9.90447e-05
-0.000262303
9.6083e-05
-0.000239172
6.72988e-05
-0.000197214
2.84919e-05
-0.000109019
-5.1242e-05
-5.14686e-05
-8.95718e-05
-0.000100866
-1.19564e-05
-4.19012e-05
0.000269583
-3.85532e-05
0.000445373
-5.47878e-05
0.00046159
-6.93664e-05
0.000399773
-0.000120229
0.000356894
-0.000175841
0.000255985
-0.000208774
0.000209056
-0.000346214
0.00024305
-0.000336881
0.000134009
-0.000366181
0.000191267
-0.000428574
0.000152625
-0.000413701
0.000153976
-0.000318291
0.000100392
-0.000289366
8.83992e-05
-0.000279931
7.91505e-05
-0.000287038
8.85185e-05
-0.000285901
9.7907e-05
-0.00019855
8.73209e-06
-0.000149884
1.86333e-05
-7.12081e-05
-5.01842e-05
-3.91508e-05
-8.32994e-05
-3.42006e-05
-9.45219e-05
-0.000108667
-2.63987e-05
-3.32841e-05
0.000302868
-2.86009e-06
0.000414949
-8.61279e-06
0.000467343
-3.15578e-05
0.000422718
-0.000101084
0.00042642
-0.000181351
0.000336252
-0.000260829
0.000288533
-0.000178854
0.000161075
-0.000321794
0.000276949
-0.000337217
0.00020669
-0.000373625
0.000189034
-0.000316503
9.68532e-05
-0.000310706
9.45954e-05
-0.000293383
7.10764e-05
-0.000314248
0.000100015
-0.00033017
0.000104441
-0.000274738
4.24742e-05
-0.000280776
1.477e-05
-0.000217203
-4.49393e-05
-0.000155223
-0.000112164
-0.00011741
-0.000121112
-8.2803e-05
-0.000129129
-0.00012772
-6.37501e-05
-5.70602e-05
0.000359928
9.4134e-06
0.000348476
-4.33129e-06
0.000481087
-5.02804e-05
0.000468668
-9.51885e-05
0.000471328
-0.000156523
0.000397587
-0.000237537
0.000369547
-0.000263165
0.000186702
-0.00028874
0.000302524
-0.000323361
0.000241312
-0.000335022
0.000200695
-0.000308088
6.99188e-05
-0.00028582
7.23279e-05
-0.000286987
7.22431e-05
-0.000308033
0.00012106
-0.000331197
0.000127605
-0.000341767
5.30443e-05
-0.000303995
-2.30024e-05
-0.000207692
-0.000141243
-0.000122352
-0.000197505
-4.00981e-05
-0.000203365
-5.15807e-05
-0.000117647
-0.000164173
-1.51275e-05
-4.13474e-05
0.000401275
-2.79459e-05
0.000335075
-4.64321e-05
0.000499574
-8.45381e-05
0.000506773
-9.28023e-05
0.000479592
-0.000127776
0.000432561
-0.000125625
0.000367396
-0.000252489
0.000313566
-0.000279229
0.000329265
-0.000303705
0.000265787
-0.000290909
0.000187898
-0.000307032
8.60423e-05
-0.000295934
6.12298e-05
-0.000273992
5.03012e-05
-0.000265185
0.000112253
-0.00021891
8.13305e-05
-0.000162566
-3.30041e-06
-0.000102095
-8.34734e-05
-4.66482e-05
-0.000196689
-3.96553e-05
-0.000204498
-4.01888e-05
-0.000202832
-3.06291e-06
-0.000154772
-0.000140169
-2.70678e-05
-5.99979e-05
0.000461273
-7.18868e-05
0.000346964
-9.85671e-05
0.000526254
-0.000125583
0.00053379
-0.000174087
0.000528097
-0.000212793
0.000471266
-0.000209792
0.000364396
-0.000238892
0.000342666
-0.000266684
0.000357056
-0.000143507
0.00014261
-0.000195714
0.000240106
-0.000224486
0.000114814
-0.000251864
8.86078e-05
-0.000243044
4.1481e-05
-0.000191307
6.05159e-05
-0.000123582
1.36064e-05
-3.94911e-05
-8.73918e-05
-8.41388e-06
-0.000114551
-1.03744e-05
-0.000194729
-1.64113e-05
-0.000198461
-2.45135e-05
-0.00019473
-1.53096e-05
-0.000163976
-0.000143634
-1.18444e-05
-5.15286e-05
0.000512802
-0.000115987
0.000411423
-0.000107707
0.000517975
-0.000139429
0.000565512
-0.000184479
0.000573146
-0.000220539
0.000507326
-0.000133157
0.000277015
-0.000234247
0.000443756
-0.000124603
0.000247413
-0.000182267
0.000200274
-0.000193533
0.000251373
-0.00015833
7.96105e-05
-0.000192207
0.000122486
-0.000156173
5.44712e-06
-7.22795e-05
-2.33777e-05
-2.06922e-06
-5.66038e-05
1.87075e-05
-0.000108168
4.91999e-05
-0.000145043
2.41466e-05
-0.000169676
1.41793e-05
-0.000188494
1.1137e-05
-0.000191688
4.01476e-05
-0.000192987
-0.000130932
2.74465e-05
-3.06086e-05
0.000543411
-0.000175447
0.000556261
-0.000103884
0.000446412
-0.000120452
0.00058208
-0.000121263
0.000573957
-0.00014013
0.000526193
-0.000243971
0.000380856
-0.000116368
0.000316153
-0.00015569
0.000286734
-0.000179506
0.00022409
-0.000172323
0.000244189
-0.000203178
0.000110466
-0.000169627
8.8935e-05
-8.18259e-05
-8.23535e-05
-2.36736e-05
-8.15298e-05
1.98964e-05
-0.000100174
8.14796e-05
-0.000169752
9.86751e-05
-0.000162239
5.07156e-05
-0.000121716
4.99551e-05
-0.000187733
4.60073e-05
-0.00018774
9.29979e-06
-0.00015628
-0.000199122
7.7489e-05
-2.90755e-05
0.000572487
-5.94581e-05
0.000586644
-0.000149487
0.00053644
-0.000143515
0.000576108
-0.000196829
0.000627271
-8.07131e-05
0.000410077
-0.000196228
0.00049637
-0.000190773
0.000310698
-0.000145007
0.000240969
-0.000108695
0.000187778
-0.000121505
0.000256998
-0.000155811
0.000144772
-8.29328e-05
1.60572e-05
-4.16963e-05
-0.00012359
3.53223e-05
-0.000158548
0.000113661
-0.000178513
0.000127841
-0.000183931
9.3922e-05
-0.00012832
0.000108094
-0.000135888
6.42425e-05
-0.000143882
1.29709e-05
-0.000136468
5.52821e-05
-0.000198591
-0.000178974
3.51345e-05
-3.93163e-05
0.000611803
-5.31232e-05
0.00060045
-9.99995e-05
0.000583316
-0.000120849
0.000596958
-9.64921e-05
0.000602913
-0.000115048
0.000428632
-0.000172688
0.000554011
-0.000130652
0.000268661
-9.78837e-05
0.000208201
-0.000121622
0.000211516
-7.23893e-05
0.000207765
-2.98897e-05
0.000102272
2.13588e-05
-3.51915e-05
6.26055e-05
-0.000164836
8.44974e-05
-0.00018044
5.48631e-05
-0.000148878
5.96716e-05
-0.00018874
0.000128697
-0.000197345
0.000119612
-0.000126804
0.000102243
-0.000126513
8.94163e-05
-0.000123641
6.79542e-05
-0.000177129
-0.000163293
5.22732e-05
-4.77151e-05
0.000659518
-7.34498e-05
0.000626184
-3.73618e-05
0.000547228
-5.03106e-05
0.000609907
-2.35071e-05
0.00057611
-0.0001374
0.000542525
-0.000112136
0.000528748
-8.23514e-05
0.000238877
-4.01188e-05
0.000165968
9.98364e-06
0.000161414
5.33991e-05
0.000164349
0.000123593
3.20776e-05
0.000168884
-8.04821e-05
0.000121243
-0.000117196
0.000131475
-0.000190672
0.000150725
-0.000168129
0.000125974
-0.000163988
0.000101613
-0.000172985
0.00013386
-0.000159051
0.000123136
-0.000115788
0.000106251
-0.000106756
8.75144e-05
-0.000158393
-0.000157146
8.13674e-05
-7.23288e-05
0.000731846
-5.44763e-05
0.000608332
-3.55702e-05
0.000528322
-2.1946e-05
0.000596283
-2.20725e-05
0.000576237
-7.75041e-05
0.000597957
-8.57198e-05
0.000536963
-0.000134037
0.000287194
-4.71721e-05
7.91029e-05
7.31904e-05
4.1051e-05
0.000156065
8.14736e-05
0.000199556
-1.14131e-05
0.000191191
-7.21168e-05
0.000183865
-0.000109869
0.00017532
-0.000182128
0.000172868
-0.000165676
0.000137142
-0.000128263
9.26427e-05
-0.000128485
8.82748e-05
-0.000154683
0.000126014
-0.000153528
0.000130918
-0.00011166
7.52224e-05
-0.000102697
-0.000149033
6.71092e-05
-6.05327e-05
0.000792379
-4.56275e-05
0.000593427
-4.7236e-05
0.00052993
-3.70425e-05
0.000586089
-2.85145e-05
0.000567709
-1.10505e-05
0.000580493
-2.1831e-05
0.000547744
3.95904e-05
0.000225773
3.95206e-05
7.91726e-05
7.0688e-05
9.88365e-06
0.000179773
-2.76109e-05
0.000203519
-3.51588e-05
0.000202923
-7.15207e-05
0.00022481
-0.000131756
0.000196205
-0.000153521
0.000145774
-0.000115246
0.000131813
-0.000114303
0.000143619
-0.00014029
9.91206e-05
-0.000110185
4.67102e-05
-0.000101117
7.00436e-05
-0.000134994
0.000114124
-0.000146777
-0.000105947
7.1038e-05
-3.37323e-05
0.000826111
-6.61918e-05
0.000625887
-7.24293e-05
0.000536168
-6.96214e-05
0.000583281
-4.1462e-05
0.000539549
1.67365e-05
0.000522294
6.77107e-05
0.000496769
9.83011e-05
0.000195183
0.000124798
5.26757e-05
0.000142399
-7.71761e-06
0.000164749
-4.9961e-05
0.000205995
-7.64045e-05
0.000217008
-8.25331e-05
0.00020229
-0.000117038
0.000163656
-0.000114887
0.000144534
-9.61241e-05
0.000160764
-0.000130532
0.000116605
-9.6132e-05
0.000100942
-9.45214e-05
0.000127939
-0.000128115
0.000121981
-0.000129036
6.50999e-05
-8.98963e-05
-9.69371e-05
5.60895e-05
-3.74776e-05
0.000863589
-9.22205e-05
0.000680629
-0.000109045
0.000552992
-9.16724e-05
0.000565909
-5.88336e-05
0.000506711
1.14281e-05
0.000452033
0.000100959
0.000407238
0.000151137
0.000145004
0.000181291
2.2522e-05
0.000187697
-1.4124e-05
0.00021454
-7.68043e-05
0.000215338
-7.72031e-05
0.000212451
-7.9646e-05
0.000197973
-0.000102559
0.000142392
-5.93053e-05
0.000147891
-0.000101624
0.0001315
-0.000114141
0.000113652
-7.82839e-05
0.000129059
-0.000109928
0.000123309
-0.000122365
8.3776e-05
-8.95034e-05
7.00359e-05
-7.61563e-05
-0.000120727
9.38252e-05
-4.56116e-05
0.0009092
-0.000102112
0.000737129
-0.000125154
0.000576034
-0.000102617
0.000543372
-7.85923e-05
0.000482687
8.64359e-06
0.000364797
0.000127689
0.000288193
0.000197626
7.50664e-05
0.000196812
2.33362e-05
0.000187286
-4.59771e-06
0.000140812
-3.033e-05
0.00013562
-7.20101e-05
0.000122444
-6.64698e-05
0.000112852
-9.29667e-05
0.000157544
-0.000103998
0.000125476
-6.95551e-05
0.000111289
-9.99547e-05
0.000122893
-8.98872e-05
0.000109215
-9.62504e-05
5.39026e-05
-6.7053e-05
6.09728e-05
-9.65737e-05
9.22576e-05
-0.000107441
-0.000100413
7.19437e-05
-2.98852e-05
0.000939085
-9.21297e-05
0.000799374
-0.000113943
0.000597847
-9.63659e-05
0.000525795
-6.32458e-05
0.000449566
2.68194e-05
0.000274731
0.000175341
0.000139672
0.000155913
9.44941e-05
0.000175651
3.59805e-06
0.000226091
-5.50372e-05
0.000220322
-2.45609e-05
0.000201995
-5.36831e-05
0.000218455
-8.29294e-05
0.000189848
-6.43595e-05
0.000143131
-5.72801e-05
0.000150114
-7.65385e-05
0.000137404
-8.72443e-05
0.000123391
-7.58742e-05
0.00010575
-7.86102e-05
0.000119753
-8.10562e-05
0.000111096
-8.79166e-05
7.13497e-05
-6.76952e-05
-0.000101067
7.20036e-05
5.35393e-05
0.000885546
-1.50315e-05
0.000867945
-5.12126e-05
0.000634028
-4.43799e-05
0.000518963
2.82998e-05
0.000376887
0.000132415
0.000170616
0.000221896
5.01912e-05
0.000261762
5.46279e-05
0.000249174
1.61863e-05
0.00021547
-2.13331e-05
0.000212697
-2.17885e-05
0.000190459
-3.14446e-05
0.000128656
-2.11257e-05
0.000134681
-7.0385e-05
0.000169923
-9.25212e-05
0.000136388
-4.30036e-05
0.000127987
-7.88439e-05
0.00012057
-6.84575e-05
0.000101265
-5.93047e-05
9.48038e-05
-7.45955e-05
8.55822e-05
-7.86952e-05
7.90931e-05
-6.12063e-05
-9.50519e-05
7.3078e-05
8.34675e-05
0.000802079
0.000133736
0.000817675
0.000133483
0.000634282
0.000142529
0.000509918
0.000202602
0.000316813
0.000262741
0.000110478
0.000271427
4.1505e-05
0.000262853
6.32024e-05
0.000268799
1.02405e-05
0.000239871
7.59526e-06
0.000219888
-1.80457e-06
0.000188884
-4.40371e-07
0.000178835
-1.10774e-05
0.000118496
-1.00456e-05
9.17185e-05
-6.57431e-05
0.000141086
-9.23711e-05
0.000115857
-5.36153e-05
9.11012e-05
-4.37015e-05
0.000107804
-7.60079e-05
9.59625e-05
-6.27542e-05
6.21256e-05
-4.48586e-05
6.79526e-05
-6.70335e-05
-8.06134e-05
5.35139e-05
0.000137116
0.000664962
0.000213763
0.000741029
0.000250024
0.000598021
0.000266473
0.000493468
0.000282248
0.000301039
0.000211492
0.000181235
0.000226316
2.66811e-05
0.000251666
3.78522e-05
0.0002498
1.21075e-05
0.000227434
2.99621e-05
0.00016832
5.73098e-05
0.000179617
-1.17372e-05
0.000176034
-7.49404e-06
0.000176483
-1.04948e-05
0.000141374
-3.06337e-05
7.51178e-05
-2.61149e-05
8.19784e-05
-6.04759e-05
0.000114239
-7.59627e-05
6.55481e-05
-2.73169e-05
5.29731e-05
-5.01795e-05
8.16828e-05
-7.35686e-05
6.95935e-05
-5.49443e-05
-7.99512e-05
6.89311e-05
0.000206591
0.000458371
0.000274187
0.000673434
0.000292802
0.000579405
0.000335433
0.000450837
0.000356914
0.000279558
0.000353208
0.000184942
0.000216529
0.000163359
0.000226753
2.7629e-05
0.000172856
6.60048e-05
0.000153931
4.88873e-05
0.000194299
1.69421e-05
0.000182239
3.23332e-07
0.000165187
9.55848e-06
0.000156088
-1.39573e-06
0.000139194
-1.37392e-05
0.00012706
-1.39804e-05
8.01481e-05
-1.35642e-05
6.81942e-05
-6.40091e-05
7.03589e-05
-2.94819e-05
8.42107e-05
-6.40315e-05
5.56439e-05
-4.5002e-05
6.97699e-05
-6.90706e-05
-4.58619e-05
3.56805e-05
0.000128746
0.000329624
0.000256107
0.000546072
0.00027925
0.000556263
0.000255759
0.000474329
0.000338586
0.00019673
0.000252699
0.000270829
0.000315195
0.000100863
0.000274068
6.87568e-05
0.000217508
0.000122565
0.000238422
2.79734e-05
0.000204915
5.04487e-05
0.00018067
2.45684e-05
0.00016643
2.37991e-05
0.000160185
4.84967e-06
0.000133161
1.32857e-05