/*--------------------------------*- C++ -*----------------------------------*\
| =========                 |                                                 |
| \\      /  F ield         | foam-extend: Open Source CFD                    |
|  \\    /   O peration     | Version:     4.1                                |
|   \\  /    A nd           | Web:         http://www.foam-extend.org         |
|    \\/     M anipulation  |                                                 |
\*---------------------------------------------------------------------------*/
FoamFile
{
    version     2.0;
    format      ascii;
    class       volScalarField;
    location    "0.9";
    object      psi;
}
// * * * * * * * * * * * * * * * * * * * * * * * * * * * * * * * * * * * * * //

dimensions      [1 -1 -2 0 0 0 0];

internalField   nonuniform List<scalar> 
2268
(
-1900.12
-2008.71
-2413.65
-2176.08
-2424.27
-2228.44
-2524.09
-2461.63
-2525.87
-1392.5
-41.8743
-60.4814
-10.4868
-6.62402
-4.07883
-2.65235
-1.02891
-1.18647
-14.2572
-59.8311
-88.6897
-1172.01
-1935.99
-1537.97
-1708.86
-1906.52
-729.8
-2480.75
-2850.48
-2722.29
-2454.16
-2385.72
-2262.83
-153.637
-265.56
-29.8322
-21.3566
-13.1552
-9.45326
-3.00163
-1.11108
-3.60463
-11.0523
-9.12481
-178.519
-1014.89
-766.239
-655.212
89.0906
1047.23
-1621.05
-2814.81
-2853.75
-2820.14
-2857.39
-2285.99
-2084.08
-213.655
-64.9664
-97.7105
-100.931
-48.7971
-8.42068
-2.24055
-1.2529
-1.71713
-9.81312
-72.3647
-286.751
-174.497
537.358
558.245
1867.57
-1656.85
-2720.87
-2799.88
-2840.5
-2857.73
-2248.65
-1426.46
-274.488
-297.754
-603.234
-440.855
-211.239
-37.4544
-12.9297
-3.4652
-4.13486
-10.7823
-88.6503
-221.116
-80.7975
391.918
197.218
1151.57
-2247.36
-2706.94
-2795.94
-2831.33
-2433.62
-1665.36
-1052.68
-846.227
-1194.27
-1840.07
-1286.39
-781.978
-161.083
-56.6876
-20.2901
-24.1157
-39.7613
-202.13
-248.837
-19.1478
651.964
-1489.67
2069.37
-1264.94
-2330.91
-2325.76
-2857.74
-2745.12
-2090.14
-1486.59
-1830.09
-2372.28
-2818
-2251.22
-1807.27
-619.885
-327.907
-237.282
-145.96
-241.177
-570.587
-426.842
907.274
2048.35
1986.38
2349.8
-458.949
-1501.68
-1752.68
-2771.45
-2842.98
-2836.74
-2557
-2856.63
-2771.97
-2352.1
-2758.19
-2419.06
-1709.87
-1567.54
-1500.95
-943.469
-968.777
-1231.63
-1069.57
1183.5
2857.36
2846.04
2849.3
1911.01
1584.97
419.939
-2169.2
-2455.77
-1204.17
-2508.49
-1695.4
-2838.39
-2286.82
-2851.93
-2834.43
-2830.61
-2834.32
-2851.05
-2312.95
-2535.35
-2786.75
-2649.1
-1951.76
-1481.2
-1042.7
-831.17
-782.724
-808.964
-962.583
-1301.3
-1716.66
-2016.85
-2101
-2110.67
-2106.24
-2115.07
-2111.26
-2080.4
-2088.48
-2294.34
-2185.93
-1967.58
-1225.34
-694.854
-478.017
-409.219
-693.608
-1113.36
-1498.68
-1729.74
-1794.7
-1694.9
-1640.14
-1200.2
-1012.72
-1355.37
-1513.42
-1400.16
-2004.76
-1993.69
-2002.37
-1472.01
-660.201
-297.684
-510.82
-886.497
-971.853
-909.203
-688.403
-232.721
531.156
514.24
338.762
1383.3
98.06
-588.54
-796.872
-1764.94
-1937.02
-2011.65
-1363.88
-250.191
89.6307
-53.2617
-80.3538
-374.354
-357.911
256.906
1580.92
2168.95
2288.12
2122.28
2235.83
1517.01
874.921
-421.319
-1580.1
-1905.52
-2000.54
-1123.07
459.601
1155.82
1335.28
1420.13
882.52
209.816
872.194
2395.28
2628.02
2717.86
2471.99
1640.02
1204.82
1012.2
-239.073
-1458.36
-1880.31
-1967.04
-671.98
1682.54
2480.53
2514.75
2625.31
2002.53
959.597
901.421
1581.85
2628.26
2781.49
2690.45
1254.13
570.644
68.369
-547.047
-1418.28
-1872.5
-1835.43
234.131
2393.95
2684.2
2756.77
2770.68
2621.58
2771.78
2434.23
2099.39
1751.23
2378.57
2716.94
1418.97
700.354
137.908
-550.63
-1409.58
-1863.5
-1531.67
1266.68
2294.58
2474.89
2644.08
2773.16
2307.46
2851.28
2854.94
2710.62
2592.38
817.027
1347.97
1131.57
900.489
454.765
-293.903
-1223.48
-1847.47
984.225
2853.39
2474.34
2822.74
2705.76
2271.77
-122.587
-1954.48
-2026.01
103.805
486.305
306.48
-546.469
-2296.72
-2496.72
-2431.51
-2337.26
-2036.41
-1752.18
-2184.91
-2359.7
-1213.73
-637.259
1438.67
2806.11
2827.37
2740.48
1950.17
1536.83
1641.41
-1208.67
-728.038
852.881
2022.42
383.436
-1278.88
-2035.79
-1793.96
-1421.44
-595.671
-86.4812
14.0708
-31.4053
-303.19
-663.393
-699.067
2843
2828.21
2827.05
2747.37
2615.31
1925.97
2650.63
2103.91
1630.85
562.459
2519.27
519.587
-1623.51
-1966.26
-1087.76
-437.045
-119.166
-134.172
-624.813
-903.481
-1018.47
-1096.16
-1072.65
2735.11
2835.32
2808.34
2854.27
2682.07
2429.08
1812.47
1837.73
2258.1
784.692
2837.83
724.222
-1449.28
-1806.78
-1208.06
-629.334
-157.901
-71.4894
-509.567
-1151.22
-1372.03
-1438.65
-1435.83
2619.07
2851.52
2849.18
2857.39
2564.51
2839.96
2665.37
2844.39
2840.26
2299.25
2389.44
149.631
-845.284
-998.28
-344.559
-442.438
-43.5138
198.833
-122.742
-620.505
-670.302
108.004
1589.35
2515.3
2657.06
1861.43
2635.25
1808.6
1492.74
2411.73
2664.3
2834.96
2736.76
2648.75
1798.97
751.485
641.895
1933.37
1137.31
1377.67
1521.21
1106.4
897.173
1544.54
2738.45
2852.05
2364.39
1676.97
761.899
1261.65
800.284
855.716
1587.43
2005.4
2367.94
2857.3
2769.74
2736.8
2613.3
2464.11
2657.49
2364.4
2656.28
2745.12
2700.04
2620.6
2838.79
2775.39
2683.87
2000.45
1009.97
424.874
446.671
399.92
443.291
736.627
928.135
940.215
2465.66
2776.39
2553
2790.45
2810.96
2857.11
2807.83
2857.62
2736.28
2707.25
2724.57
2648.46
2592.3
2572.63
1249.94
756.839
411.717
341.063
304.744
317.722
420.506
549.567
767.669
1737.03
2788.79
2715.95
2282.71
2219.24
2691.68
2773.18
2615.11
2442.37
2446.4
2479.09
2477.42
2474.84
2509.93
622.752
448.999
364.023
268.943
246.485
191.785
182.955
235.375
469.123
1075.93
2054.03
2809.31
1660.02
2024.35
2275.13
2287.28
2140.67
2144.09
2344.3
2394.31
2400.17
2412.7
2434.81
396.993
332.512
255.018
116.621
177.258
216.024
377.683
627.08
858.264
1220.2
1572.1
1828.34
1543.61
1764.96
1831.9
1750.9
1631.14
1844.03
2144.19
2335.01
2448.81
2504.19
2572.26
310.561
224.5
142.984
223.943
386.811
572.862
745.86
870.015
1023.33
1153.46
1276.25
1351.61
1311.73
1345.32
1481.15
1544.64
1672.04
1945.94
2232.39
2366.87
2435.8
2481.55
2536.85
247.79
156.993
159.968
293.146
406.964
526.049
647.257
846.057
1001.39
1117.12
1182.24
1222.8
1270
1361.51
1535.1
1727.96
1910.15
2147.85
2293.71
2371.95
2417.36
2430.87
2422.6
170.264
128.512
158.946
272.561
364.129
524.836
761.077
893.354
984.853
1066.1
1141.36
1284.99
1431.88
1572.96
1694.27
1805.11
1979.67
2141.26
2240
2280.99
2279.7
2087.88
1734.69
130.19
108.768
138.812
210.344
299.278
534.033
726.298
838.492
921.992
1030.96
1171.46
1356.12
1491.19
1603.63
1715.19
1823.31
1914.24
1959.76
1937.32
1837.4
1513.48
832.752
456.577
105.747
92.0506
115.189
181.661
289.503
493.077
615.531
676.116
757.93
905.403
1084.69
1278.76
1373
1408.19
1412.71
1385.43
1353.37
1136.52
878.319
594.082
254.634
52.5304
35.0219
89.5797
72.2837
90.6354
138.613
228.406
383.664
489.865
574.858
670.902
848.353
995.054
1060.96
1033.77
773.803
595.33
491.414
415.329
265.406
155.472
63.9509
21.4981
11.3953
8.15491
72.7608
62.1398
84.9067
123.65
193.035
320.161
402.828
466.534
612.313
739.902
781.796
649.726
377.536
199.278
128.395
94.9576
62.9492
35.3983
45.6245
46.7846
36.4361
23.3413
15.2282
67.3662
64.1284
90.069
129.449
191.345
290.973
357.688
422.313
557.242
608.234
507.638
246.263
116.017
56.9186
47.7839
47.9319
61.7515
69.9151
72.3513
65.9902
47.7218
31.8931
21.274
68.9294
84.9997
113.764
151.386
200.225
262.297
301.345
407.46
485.739
467.067
296.822
132.897
74.3988
53.3216
48.6241
50.0698
64.8097
75.2134
67.6115
44.7269
27.9896
21.1158
12.9557
76.0343
134.419
161.657
189.268
217.521
255.465
303.547
392.889
428.89
402.763
261.767
122.843
80.7205
70.1736
67.684
69.553
70.0209
89.6251
34.2173
13.6648
6.12464
3.86647
2.38343
91.6065
179.37
201.372
212.252
219.451
248.155
297.597
371.637
388.11
320.514
221.857
103.451
59.901
38.9762
32.7152
20.5382
11.77
29.9973
11.4958
4.3825
1.87723
1.04559
0.656321
96.5895
202.184
216.713
217.117
216.417
236.804
296.326
341.119
333.612
272.119
185.387
66.8193
32.2403
17.3157
12.3127
9.30429
5.50599
3.91408
2.86621
1.51757
0.708712
0.351995
0.12475
95.7106
202.55
218.097
214.421
207.416
216.516
275.632
294.587
258.907
222.237
180.599
64.025
37.0955
21.054
11.5009
7.25825
4.74987
2.37737
1.27094
0.629692
0.314307
0.125816
0.0512352
93.0336
199.999
215.102
203.654
187.728
184.758
238.729
211.015
158.708
143.031
182.009
67.3822
41.0079
19.453
9.73814
4.94755
1.94126
1.00189
0.608193
0.325072
0.177227
0.0594498
0.0195868
92.5533
194.115
205.35
180.123
152.913
138.679
190.477
106.007
71.803
57.5397
137.385
64.8279
28.5445
10.964
3.33755
1.59816
0.951051
0.484929
0.246083
0.131705
0.0646617
0.0206792
0.00559715
95.4459
185.582
186.649
146.69
111.69
98.8722
127.441
45.2513
24.2935
14.8231
45.7085
24.6867
8.89226
3.17117
0.995879
0.419604
0.254729
0.142791
0.064998
0.0286667
0.0143083
0.00533969
0.00120851
101.147
175.434
161.241
112.161
82.0886
74.3793
87.0054
31.4485
13.4732
3.9137
7.41912
4.01249
1.64874
0.605695
0.217927
0.104977
0.0647435
0.0363141
0.0189254
0.00727107
0.00205818
0.000691701
0.000225802
107.359
164.438
135.885
87.1638
61.4312
55.3474
58.8186
25.8972
11.0041
5.36069
2.57665
1.20672
0.520356
0.186361
0.0642817
0.0322841
0.0189498
0.010623
0.0050886
0.00205788
0.000779386
0.000259793
5.9994e-05
110.228
152.323
115.898
71.7608
47.8836
40.3474
38.6559
20.4226
10.1514
5.1303
2.1558
0.805877
0.25888
0.0713499
0.0219531
0.00900455
0.00480077
0.00272188
0.0011001
0.000366045
0.000114451
3.22264e-05
6.83996e-06
109.656
143.117
98.4245
62.8363
40.5697
31.2855
27.1219
15.6858
7.98498
3.43835
1.08678
0.247396
0.0503144
0.00991704
0.00315754
0.00192268
0.00115672
0.00059385
0.000210833
6.04889e-05
1.15782e-05
2.53805e-06
5.66973e-07
107.803
134.917
89.5101
59.2501
38.7565
25.8173
18.2784
9.66817
3.6035
1.20249
0.421529
0.127216
0.0334051
0.00858732
0.00190728
0.000573113
0.000271644
0.000133202
4.72961e-05
1.49684e-05
4.19454e-06
9.99753e-07
1.52929e-07
103.464
125.584
85.8916
56.0925
37.4932
21.5324
10.6149
5.66288
2.46992
0.840937
0.234789
0.0578722
0.0115449
0.00165357
0.000280117
9.83282e-05
4.24487e-05
1.96423e-05
7.14988e-06
1.91454e-06
4.3919e-07
9.88054e-08
1.66773e-08
92.9599
109.785
82.7599
53.9047
33.4984
16.0678
6.23583
2.70008
1.0411
0.342614
0.089198
0.01968
0.00367911
0.000606853
7.59755e-05
1.40322e-05
4.80781e-06
1.75339e-06
5.07004e-07
1.43789e-07
3.36757e-08
5.71432e-09
1.16415e-09
65.3087
78.9135
64.4698
43.8854
23.248
8.52352
2.08863
0.75562
0.257432
0.0849717
0.0216965
0.00381504
0.000670539
0.000124169
2.55834e-05
5.60554e-06
1.01027e-06
2.02103e-07
4.82513e-08
8.33729e-09
1.70256e-09
6.82119e-10
4.36557e-10
24.2698
37.9081
33.8348
25.0844
12.4038
4.5061
1.19273
0.24073
0.0590306
0.0149339
0.00388462
0.000726692
0.00012303
2.04345e-05
4.49346e-06
1.44223e-06
4.06316e-07
6.55699e-08
1.04455e-08
1.79989e-09
6.99401e-10
4.3201e-10
3.67436e-10
4.65456
14.3304
13.8444
10.2545
4.0926
1.43277
0.361151
0.0785082
0.0187701
0.00395451
0.00086992
0.000150754
2.43771e-05
3.87689e-06
8.84261e-07
2.99617e-07
9.55505e-08
2.10357e-08
3.21961e-09
7.10314e-10
5.02951e-10
3.69255e-10
3.56522e-10
0.627331
4.32748
4.64961
3.51313
1.04119
0.398916
0.0893087
0.0176699
0.00462352
0.000779549
0.000119692
1.359e-05
1.75654e-06
3.02879e-07
1.10471e-07
4.00377e-08
1.15333e-08
2.33648e-09
7.42147e-10
4.78394e-10
4.30191e-10
3.91083e-10
3.81078e-10
0.0967829
0.932303
1.19034
0.904477
0.194399
0.0851723
0.0183352
0.00333331
0.000918962
0.000162441
2.76214e-05
3.10708e-06
2.84774e-07
5.07533e-08
2.1615e-08
5.81984e-09
1.91084e-09
6.43012e-10
3.97449e-10
3.99268e-10
3.91083e-10
2.93767e-10
3.18323e-10
0.0132845
0.12859
0.259582
0.184532
0.0297641
0.015015
0.00319167
0.000498744
0.00013775
1.77944e-05
3.40472e-06
3.6907e-07
3.40813e-08
8.8812e-09
3.86444e-09
1.16597e-09
6.18456e-10
4.12001e-10
4.1382e-10
3.67436e-10
4.00178e-10
3.16504e-10
3.62888e-10
0.00172456
0.0144278
0.0442365
0.0314355
0.00396042
0.00239256
0.00051334
8.32534e-05
1.90529e-05
2.62877e-06
3.4011e-07
3.76293e-08
4.14091e-09
1.38334e-09
7.66703e-10
3.21051e-10
2.81943e-10
2.55568e-10
2.60115e-10
3.04681e-10
2.5193e-10
3.10138e-10
3.71074e-10
0.000186696
0.00135075
0.00572411
0.00407887
0.000502988
0.000326019
6.7259e-05
1.14493e-05
1.71942e-06
2.95677e-07
2.96912e-08
2.5784e-09
6.51197e-10
4.82941e-10
3.61069e-10
2.91948e-10
2.60115e-10
3.16504e-10
3.91083e-10
3.73802e-10
2.91948e-10
4.07454e-10
3.39242e-10
-493.335
-389.584
-266.721
-190.083
-731.241
-749.785
-761.229
-764.12
-1119.56
-1019.64
-832.179
-574.371
-1396.75
-1176.4
-672.817
548.322
2145.31
2443.43
2757.32
2843.7
2791.47
2759.76
2728.4
2709.97
2645.61
2642.45
2647.39
2693.43
2555.58
2571.63
2623.95
2683.15
2573.92
2649.4
2736.03
2816.2
2501.54
2572.2
2627.47
2685.36
2695.7
2767.06
2796.31
2804.02
2606.68
2624.72
2616.86
2558.54
2354.08
2181.39
1912.67
1605.68
1362.48
1036.15
771.509
554.117
280.722
193.291
139.35
99.9129
31.3865
18.816
12.6432
7.95451
4.15416
2.41131
1.31394
0.721363
6.01429
2.63873
1.36472
0.700884
10.7496
4.90129
2.6783
0.863784
4.57515
1.44756
0.889554
0.300248
1.23399
0.518469
0.360305
0.137756
0.461922
0.212049
0.166749
0.0722304
0.10772
0.0784913
0.066079
0.0479879
0.0231989
0.0190468
0.0139741
0.0089514
0.00739324
0.00470364
0.00255793
0.00194061
0.00233999
0.00109533
0.000333108
0.000158504
0.000497515
0.000270197
0.000101529
4.10712e-05
8.03362e-05
3.94307e-05
1.60452e-05
5.73904e-06
1.44434e-05
6.98596e-06
3.03482e-06
1.18681e-06
1.78738e-06
8.14283e-07
3.36944e-07
1.23677e-07
1.38292e-07
3.65668e-08
1.18879e-08
4.16271e-09
4.24624e-08
1.24373e-08
3.63706e-09
1.13414e-09
4.73845e-09
1.54432e-09
5.22957e-10
2.94676e-10
4.81121e-10
3.30146e-10
3.11957e-10
2.68301e-10
3.21052e-10
2.93767e-10
2.90129e-10
3.10138e-10
2.93767e-10
3.32875e-10
3.30147e-10
3.11957e-10
3.10138e-10
3.69255e-10
3.91992e-10
3.46518e-10
3.32875e-10
3.52884e-10
3.72893e-10
2.90129e-10
2.85581e-10
3.12866e-10
2.75577e-10
1.11868e-10
3.11957e-10
2.93767e-10
1.99179e-10
4.63838e-11
2.61935e-10
8.73113e-11
3.27416e-11
7.27595e-11
1.72804e-10
6.36621e-12
6.36646e-12
-2.7743e-16
-95.3291
1810.05
2198.47
2288.95
2266.15
2317.72
1957.79
2787.31
1735.9
822.897
305.603
441.52
586.613
951.024
1334.87
1089.21
-55.1988
-1538.91
-1881.99
-735.054
-377.972
-241.342
-1276.72
-243.853
-413.073
-224.29
491.588
-250.102
-735.913
-1323.31
1225.62
1370.32
1502.25
1720.94
2100.83
1564.81
-577.08
-1724.74
-46.0022
1861.79
2107.71
706.526
2233.17
1700.18
765.094
1706.83
1933.23
1369.69
552.809
2271.68
1939.32
1401.95
1841.37
2574.88
1972.03
-57.1752
-1476.03
2335.88
2803.01
2818.75
2831.82
2745.21
2855.75
2626.77
2497.12
2231.57
1958.91
1192.06
780.83
688.091
1114.31
2333.54
2761.77
2086.26
351.363
-402.363
2717.64
2671.74
2832.19
2836.2
2731.11
2570.89
2195.55
1579.28
936.12
436.847
26.8623
180.905
909.353
2320.43
2712.96
2639.16
1096.2
-527.043
-875.539
2734.62
2857.31
2770.71
2593.28
2361.13
2020.67
1406.97
725.347
243.654
37.5824
-37.1743
351.883
1701.64
2451.35
2602.17
1924.46
326.298
-1066.13
-1451.24
2795.08
2853.88
2764.38
2622.52
2399.68
2021.07
1488.43
966.417
532.753
313.373
190.35
176.216
447.919
1246.53
2022.81
2161.73
915.989
-709.11
-1299.58
2766.03
2857.04
2787.91
2692.78
2601.59
2471.11
2323.01
2139.62
1871.47
1567.07
1275.05
707.552
372.381
650.814
796.579
947.561
646.873
84.5972
-271.118
2857.69
2806.46
2747.85
2733.52
2733.43
2733.85
2660.38
2621.49
2707.73
2769.83
2594.84
2027.54
1553.02
901.746
570.11
1284.47
1660.31
1627.69
2034.9
2764.29
2848.24
2855.56
2857.74
2857.65
2842.23
2857.6
2857.01
2765.91
2591.64
2763.83
2836.79
2856.77
2810.47
2734.88
2834.06
2763.12
2798.78
2699.23
2798.69
2683.86
2399.3
2311.57
2147.03
2054.56
2179.78
2138.46
1957.74
1523.2
1904.33
1992.28
1951.09
2033.69
2000.72
1609.69
1556.76
1513.82
1474.04
2358.02
1786.82
1361.3
1294.42
1179.3
1136.6
1305.19
1096.36
1025.04
729.209
989.539
875.322
814.939
858.381
799.985
678.643
718.583
636.27
614.261
1237.86
822.414
665.576
576.421
543.067
507.336
579.745
431.2
431.939
245.389
398.612
237.908
208.482
252.083
261.113
314.799
332.819
269.861
249.347
371.54
267.457
230.398
253.389
211.995
186.395
155.874
130.153
154.013
71.4574
121.389
56.4133
39.7195
69.5284
118.647
181.344
181.917
138.392
123.374
60.4711
52.5376
49.0661
68.732
56.6319
63.0964
50.4664
39.8964
45.6847
21.0471
21.9584
10.0598
8.11537
25.4219
81.8013
127.913
111.686
84.4845
80.0345
4.73152
3.76474
7.12076
12.0169
7.03503
13.7657
16.921
9.99302
14.9211
8.66441
3.09059
1.7778
3.07305
16.8863
66.3497
101.477
66.1293
50.7734
61.1815
0.287742
0.102094
0.90526
1.99958
1.29487
2.31091
4.15743
1.68021
3.54939
4.85615
0.943599
0.451138
1.43437
13.6282
63.5077
83.5648
38.9282
24.9502
49.9599
0.184573
0.0244029
0.142968
0.300919
0.247893
0.323565
0.606993
0.330064
0.618836
2.2029
0.53867
0.176317
0.166845
4.41553
46.1965
57.4849
22.5797
11.7662
42.0406
0.130241
0.00937607
0.0256143
0.0230286
0.0360859
0.0379728
0.0467579
0.0450551
0.103742
0.786821
0.250136
0.085786
0.0488887
0.26683
9.40185
25.7344
10.9646
5.55323
36.2936
0.0739499
0.0042317
0.00530285
0.00167374
0.00668256
0.00370292
0.00678548
0.00708321
0.0280825
0.240594
0.0686663
0.0232353
0.018227
0.0666296
2.32626
10.664
3.88466
3.06426
32.3541
0.0425491
0.00316585
0.00135235
0.000121899
0.00110344
0.000362283
0.0019297
0.00112635
0.011862
0.0553384
0.0130617
0.00467855
0.00510807
0.0282779
2.24502
4.40257
1.23454
1.96155
29.3098
0.0223552
0.00286726
0.000722953
8.29131e-05
2.77959e-05
3.87547e-05
0.0005961
0.000121835
0.00332015
0.00535846
0.00218281
0.000866521
0.00155495
0.00373349
0.173711
0.430192
0.262449
1.58024
26.7457
0.0150474
0.00241457
0.00048329
6.5966e-05
9.17947e-06
9.51925e-06
1.45693e-05
1.03997e-05
0.000307933
0.000400078
0.000233148
0.000234045
0.000649062
0.00181551
0.0128556
0.0268959
0.148289
1.59106
24.7377
0.00471979
0.000800677
0.000258279
3.47513e-05
5.21775e-06
1.03043e-06
7.19902e-07
1.04327e-06
8.94708e-05
5.20866e-05
2.92314e-05
8.04285e-05
0.00036716
0.00116996
0.0057904
0.0160991
0.148497
1.69254
22.442
0.00124224
0.000250844
8.74466e-05
1.31071e-05
1.9993e-06
2.40256e-07
1.12795e-07
2.39534e-07
2.77469e-05
7.05442e-06
6.79713e-06
5.90843e-05
0.000322939
0.000985435
0.00325762
0.0147797
0.183522
1.74919
19.9245
5.78725e-05
1.81095e-05
3.03626e-06
4.14214e-07
5.37123e-08
8.95207e-09
2.09038e-08
5.53347e-08
2.98404e-06
9.22325e-07
4.22428e-06
5.18725e-05
0.000287747
0.000837892
0.00222706
0.0154155
0.206524
1.71962
17.9731
1.07634e-05
3.86495e-06
1.00799e-06
7.85919e-08
7.67884e-09
1.32695e-09
5.72072e-09
1.07402e-08
1.15085e-07
5.2217e-07
5.11864e-06
5.39196e-05
0.000339995
0.000807635
0.00199625
0.0170759
0.180848
1.30507
16.3559
9.79004e-07
1.89899e-07
6.03038e-08
9.3423e-09
1.84354e-09
3.91082e-10
1.59434e-09
9.0257e-09
4.85808e-07
1.98862e-06
1.17661e-05
6.13897e-05
0.000354888
0.000693022
0.00185829
0.0226724
0.21678
0.98001
14.9717
2.03627e-07
2.73703e-08
5.29688e-09
7.02126e-10
2.78305e-10
3.03771e-10
2.09001e-09
2.28626e-08
1.31434e-06
4.40182e-06
1.89818e-05
0.000134671
0.000277248
0.000403761
0.00107662
0.022697
0.177601
0.743208
13.8671
1.9293e-08
2.18732e-09
4.25642e-10
2.06455e-10
2.11003e-10
3.91081e-10
5.22595e-09
4.54096e-08
2.36953e-06
6.811e-06
2.36037e-05
0.000201492
0.000201347
0.000204529
0.000576387
0.0282679
0.146058
0.489439
12.8387
1.07684e-09
3.34693e-10
2.24645e-10
2.00998e-10
2.5193e-10
7.07585e-10
7.23593e-09
5.51347e-08
2.68417e-06
7.34511e-06
2.75034e-05
0.000217392
7.94725e-05
0.000122344
0.000388511
0.0280637
0.0657309
0.294745
11.9213
4.46562e-10
2.5102e-10
2.24645e-10
1.6189e-10
2.93767e-10
1.18325e-09
8.14724e-09
5.64854e-08
2.5007e-06
3.21169e-06
1.25628e-05
7.49946e-05
4.92282e-05
9.61073e-05
0.000294075
0.0135256
0.0244633
0.167404
10.6729
3.20142e-10
2.41016e-10
2.06455e-10
1.66437e-10
2.85581e-10
1.4852e-09
9.02764e-09
4.04511e-08
1.85885e-06
9.70402e-07
5.26995e-06
1.36187e-05
4.10202e-05
0.000102459
0.000271259
0.00610855
0.00878678
0.0929616
9.59605
3.065e-10
1.30058e-10
1.20053e-10
1.66438e-10
3.32875e-10
1.48066e-09
5.78984e-09
2.32102e-08
6.01365e-07
2.00926e-07
1.10063e-06
2.28947e-06
4.88634e-05
0.00020611
0.000377393
0.00144373
0.00398628
0.0653152
14.2123
2.21007e-10
6.45741e-11
1.0732e-10
1.6189e-10
3.49246e-10
1.4561e-09
2.60297e-09
7.07039e-09
8.86283e-08
4.39649e-08
3.16044e-07
1.50943e-06
9.62078e-05
0.000308356
0.000450245
0.000778111
0.00383962
0.0181328
8.13103
1.51886e-10
4.09272e-11
1.17325e-10
1.45519e-10
2.37378e-10
7.61247e-10
1.15051e-09
2.65299e-09
9.94894e-09
1.79252e-08
1.23951e-07
1.49429e-06
0.00015181
0.000385229
0.000525689
0.000713584
0.00589069
0.0121136
7.37731
1.19144e-10
2.63753e-11
1.35515e-10
1.33696e-10
1.8008e-10
3.03771e-10
4.36557e-10
6.93944e-10
5.90256e-10
1.5304e-08
1.03184e-07
1.71005e-06
0.000194878
0.000432419
0.000559226
0.00072043
0.00721019
0.0109557
6.08843
1.45517e-11
9.54969e-11
9.09494e-11
7.27595e-11
1.90994e-10
2.09184e-10
2.8831e-10
1.21872e-10
8.73045e-11
2.71557e-08
1.21967e-07
2.79563e-06
0.000286315
0.000490257
0.00059414
0.000764925
0.00754048
0.0105732
5.36349
1.21872e-10
2.7012e-10
1.71895e-10
8.0945e-11
2.39197e-10
2.09184e-10
3.00133e-10
5.09316e-11
6.91129e-11
3.45071e-08
1.48379e-07
4.4049e-06
0.000383942
0.000564503
0.000615236
0.000764611
0.00726843
0.0104184
3.39657
2.22826e-10
3.75621e-10
1.89175e-10
6.0936e-11
3.11957e-10
3.31056e-10
3.56522e-10
3.27417e-11
6.91116e-11
3.98941e-08
1.61498e-07
5.9523e-06
0.000433462
0.000600042
0.000633127
0.000778933
0.00756657
0.0108474
2.05166
2.71939e-10
3.7744e-10
1.81882e-12
9.09494e-11
3.87445e-10
4.20187e-10
4.3201e-10
-3.00135e-11
7.91147e-11
4.52428e-08
1.84548e-07
9.19463e-06
0.000469935
0.000622239
0.000644886
0.000783556
0.00681478
0.0111706
6.79774
2.96495e-10
3.18323e-10
-3.63813e-12
2.83762e-10
4.36558e-10
4.76575e-10
4.76575e-10
-1.48248e-10
1.31864e-10
5.23196e-08
1.60313e-07
2.18907e-06
0.000477015
0.00062621
0.000646586
0.000776255
0.00674649
0.0109529
3.75412
)
;

boundaryField
{
    leftWall
    {
        type            zeroGradient;
    }
    rightWall
    {
        type            zeroGradient;
    }
    lowerWall
    {
        type            zeroGradient;
    }
    atmosphere
    {
        type            zeroGradient;
    }
    defaultFaces
    {
        type            empty;
    }
}


// ************************************************************************* //
