/*--------------------------------*- C++ -*----------------------------------*\
| =========                 |                                                 |
| \\      /  F ield         | foam-extend: Open Source CFD                    |
|  \\    /   O peration     | Version:     4.1                                |
|   \\  /    A nd           | Web:         http://www.foam-extend.org         |
|    \\/     M anipulation  |                                                 |
\*---------------------------------------------------------------------------*/
FoamFile
{
    version     2.0;
    format      ascii;
    class       volVectorField;
    location    "0.9";
    object      U;
}
// * * * * * * * * * * * * * * * * * * * * * * * * * * * * * * * * * * * * * //

dimensions      [0 1 -1 0 0 0 0];

internalField   nonuniform List<vector> 
2268
(
(-0.0506934 -0.0100096 0)
(-0.0741789 0.0667869 0)
(-0.243853 0.00536541 0)
(-0.234372 -0.00929588 0)
(-0.348612 -0.0557154 0)
(-0.211713 -0.0531507 0)
(0.00390768 -0.00993064 0)
(-0.137797 -0.040775 0)
(0.115414 -0.0594942 0)
(-0.0522737 0.0943128 0)
(-0.175732 0.00749305 0)
(-0.137256 0.0153377 0)
(-0.13368 -0.0228135 0)
(-0.0998009 -0.0234664 0)
(-0.0640165 0.000100464 0)
(-0.0436649 -0.00290689 0)
(-0.00226095 0.00198118 0)
(0.00141399 0.00609107 0)
(-0.0267739 0.00419363 0)
(-0.0304011 -0.0134087 0)
(-0.00623214 -0.0143864 0)
(0.0130958 0.00250412 0)
(-0.0278889 -0.0147816 0)
(-0.109035 0.0698818 0)
(-0.212052 0.150121 0)
(-0.395078 0.0655936 0)
(-0.261464 0.0470368 0)
(-0.356692 -0.0592069 0)
(-0.348602 -0.0432989 0)
(-0.575181 -0.0147704 0)
(-0.676272 -0.00725977 0)
(-0.386818 0.0125929 0)
(-0.217966 0.0571128 0)
(-0.183733 0.0236372 0)
(-0.202922 -0.0242774 0)
(-0.166004 0.00350486 0)
(-0.11368 -0.117001 0)
(-0.0553788 -0.0261023 0)
(-0.0394446 -0.0125612 0)
(-0.0138137 -0.0137431 0)
(-0.00245617 0.000223556 0)
(0.0179753 0.00217013 0)
(0.0295034 0.018503 0)
(0.0131458 -0.00661886 0)
(0.0133128 0.00579721 0)
(0.0215032 0.00847206 0)
(-0.143071 0.130786 0)
(-0.268904 0.0638863 0)
(-0.332597 0.0898348 0)
(-0.262514 0.109931 0)
(-0.297073 -0.0358065 0)
(-0.260168 -0.00151745 0)
(-0.513605 -0.0829886 0)
(-0.589062 -0.0652035 0)
(-0.251698 -0.0318651 0)
(-0.0867211 -0.0939962 0)
(-0.061059 0.0733425 0)
(-0.259563 -0.0675433 0)
(-0.260493 0.00483954 0)
(-0.18695 -0.104171 0)
(-0.0585162 -0.0171973 0)
(-0.0556627 -0.0344517 0)
(-0.0192969 -0.00165604 0)
(-0.00939514 -0.00990442 0)
(0.0188938 -0.000546067 0)
(0.0373826 -0.00399733 0)
(0.0143899 -0.0133324 0)
(0.0115773 -0.000458886 0)
(0.0165614 0.00491515 0)
(-0.202925 0.166272 0)
(-0.303588 0.0991028 0)
(-0.313264 0.129518 0)
(-0.311164 0.0282173 0)
(-0.324386 -0.00281943 0)
(-0.262738 0.0381657 0)
(-0.445316 -0.102542 0)
(-0.484392 -0.0789563 0)
(-0.306641 -0.0457061 0)
(-0.305087 -0.0208857 0)
(-0.136737 0.101669 0)
(-0.316143 -0.0325996 0)
(-0.278533 -0.00524736 0)
(-0.221386 -0.123769 0)
(-0.0879686 -0.130555 0)
(-0.0998166 -0.0217968 0)
(-0.0356368 -0.0266478 0)
(-0.027589 -0.0116341 0)
(0.0213352 -0.0108534 0)
(0.0341855 0.000928174 0)
(0.0161873 0.00289864 0)
(0.00806593 0.00486345 0)
(0.00909331 0.0163112 0)
(-0.27094 0.241247 0)
(-0.28547 0.268488 0)
(-0.265146 0.182513 0)
(-0.273713 0.0274344 0)
(-0.357995 0.0830436 0)
(-0.357009 0.0212442 0)
(-0.479696 -0.14315 0)
(-0.526039 -0.123375 0)
(-0.454012 -0.173824 0)
(-0.339468 -0.072085 0)
(-0.308782 0.0871985 0)
(-0.349272 -0.0419488 0)
(-0.282298 -0.0668707 0)
(-0.26896 -0.19196 0)
(-0.0781739 -0.144784 0)
(-0.0503735 -0.0246786 0)
(-0.0658408 -0.0243444 0)
(-0.0447996 -0.0382901 0)
(0.0163905 -0.0162175 0)
(0.0250472 -0.0153326 0)
(-0.000743151 -0.00152254 0)
(0.0121357 0.0179368 0)
(0.00609302 0.0356847 0)
(-0.316485 0.311471 0)
(-0.170458 0.286695 0)
(-0.130316 0.148493 0)
(0.0488264 0.0284739 0)
(-0.287857 0.155542 0)
(-0.306672 0.0686747 0)
(-0.386748 -0.128039 0)
(-0.565532 -0.0856137 0)
(-0.523215 -0.160096 0)
(-0.318714 -0.0653578 0)
(-0.339331 0.112425 0)
(-0.371693 -0.0683859 0)
(-0.276645 -0.131851 0)
(-0.245447 -0.242613 0)
(-0.106496 -0.110682 0)
(-0.038037 -0.0206667 0)
(-0.0802032 -0.0645998 0)
(-0.0579229 -0.0259711 0)
(0.0113659 -0.0282658 0)
(0.0226972 0.00178204 0)
(0.0157853 0.000730369 0)
(0.0189652 0.00246324 0)
(-0.0120893 -0.0117495 0)
(-0.347726 0.363229 0)
(-0.18317 0.123327 0)
(-0.165644 0.0810971 0)
(-0.277171 0.124372 0)
(-0.297879 0.1601 0)
(-0.237536 0.0518267 0)
(-0.247133 -0.102738 0)
(-0.385464 -0.109504 0)
(-0.400406 -0.0805285 0)
(-0.256242 -0.0416789 0)
(-0.341252 -0.0163666 0)
(-0.301294 -0.017441 0)
(-0.260844 -0.0424315 0)
(-0.18395 -0.240967 0)
(-0.161518 -0.212203 0)
(-0.145611 -0.0130554 0)
(-0.117232 -0.140125 0)
(-0.0388722 -0.0568979 0)
(0.0110193 -0.0577089 0)
(0.0314957 -0.00556909 0)
(0.00445579 -0.00643117 0)
(0.029576 0.0572959 0)
(-0.020116 0.0786272 0)
(-0.348275 0.529097 0)
(0.179463 0.144463 0)
(-0.190656 0.128181 0)
(-0.209881 0.180526 0)
(-0.187555 0.137814 0)
(-0.0442654 0.0496718 0)
(-0.131771 -0.0617914 0)
(-0.214889 -0.174087 0)
(-0.279042 -0.0307055 0)
(-0.171356 -0.12072 0)
(-0.241403 0.0309949 0)
(-0.322334 -0.0933451 0)
(-0.266965 0.00100021 0)
(-0.188731 -0.343935 0)
(-0.220298 -0.192785 0)
(-0.144363 -0.0520032 0)
(-0.137889 -0.139617 0)
(-0.0171518 -0.0766144 0)
(-0.0217387 -0.0481317 0)
(-0.0174717 0.0147058 0)
(0.0800495 -0.0146733 0)
(0.113329 0.020878 0)
(-0.00455881 -0.0595332 0)
(-0.363989 0.112328 0)
(-0.445866 0.0475058 0)
(-0.712712 0.0714549 0)
(-0.955986 0.0380685 0)
(-1.00571 -0.049384 0)
(-0.9428 -0.00361474 0)
(-0.982539 0.0362967 0)
(-1.21154 -0.153019 0)
(-1.32142 -0.0754678 0)
(-1.21006 -0.119144 0)
(-1.22221 0.0206587 0)
(-1.16534 0.137474 0)
(-1.07342 -0.0417192 0)
(-1.02885 -0.00880637 0)
(-1.02059 0.000868331 0)
(-0.844984 -0.150374 0)
(-0.743594 -0.165858 0)
(-0.574611 0.043625 0)
(-0.0885758 -0.0916623 0)
(-0.313953 0.276149 0)
(-0.378061 0.106147 0)
(-0.623789 0.097316 0)
(-0.911709 0.0728153 0)
(-0.963884 0.039643 0)
(-0.816654 0.037993 0)
(-1.02121 -0.0177712 0)
(-1.25201 -0.105273 0)
(-1.35716 0.0337723 0)
(-1.15179 0.0925839 0)
(-1.07103 0.0371124 0)
(-1.14568 0.1276 0)
(-0.995794 0.0269588 0)
(-0.895367 -0.0111171 0)
(-0.957548 -0.0410117 0)
(-0.738458 0.00877261 0)
(-0.525198 -0.199093 0)
(-0.390409 -0.047609 0)
(-0.0837581 -0.203583 0)
(-0.380469 0.628764 0)
(-0.340677 0.320156 0)
(-0.273134 0.245335 0)
(-0.792465 -0.0100279 0)
(-0.980177 0.20217 0)
(-0.853568 -0.0209781 0)
(-0.948855 -0.127045 0)
(-1.06656 -0.0620698 0)
(-1.09591 -0.0644677 0)
(-1.04667 0.154223 0)
(-0.938455 -0.0817557 0)
(-0.942025 -0.0919674 0)
(-0.915934 0.15915 0)
(-0.751618 -0.14446 0)
(-0.739375 -0.263738 0)
(-0.69215 -0.0526118 0)
(-0.360758 -0.260333 0)
(-0.24769 -0.163039 0)
(0.0206289 -0.277268 0)
(-0.386564 0.708264 0)
(-0.218251 0.603253 0)
(-0.39041 0.280698 0)
(-0.820591 0.229524 0)
(-0.946029 0.334396 0)
(-0.846236 0.0476317 0)
(-0.954809 -0.102962 0)
(-1.06542 -0.188203 0)
(-1.07784 0.049268 0)
(-1.01719 -0.000701493 0)
(-0.940616 0.0621245 0)
(-0.770977 0.0251297 0)
(-0.79266 0.0523161 0)
(-0.408239 -0.066631 0)
(-0.237453 -0.34473 0)
(-0.180093 -0.249007 0)
(-0.0810942 -0.483523 0)
(-0.154668 -0.213686 0)
(0.0484555 -0.306984 0)
(-0.340399 0.863507 0)
(-0.306688 0.668098 0)
(-0.401817 0.294497 0)
(-0.718853 0.207664 0)
(-0.800333 0.244756 0)
(-0.68594 0.2667 0)
(-0.75592 -0.0672601 0)
(-0.922747 -0.120554 0)
(-0.945384 0.092113 0)
(-0.839448 -0.0699965 0)
(-0.657587 0.0947454 0)
(-0.38337 -0.149899 0)
(-0.394087 -0.21152 0)
(-0.233162 -0.152779 0)
(-5.04235e-05 -0.475835 0)
(0.0978777 -0.386909 0)
(0.060819 -0.641476 0)
(0.143328 -0.263758 0)
(0.0882627 -0.280904 0)
(-0.425006 0.976458 0)
(-0.279393 0.820077 0)
(-0.398228 0.350915 0)
(-0.528639 0.193783 0)
(-0.620668 0.333484 0)
(-0.39882 0.232706 0)
(-0.465629 -0.129727 0)
(-0.620127 0.0156714 0)
(-0.569935 -0.140541 0)
(-0.601043 0.0641756 0)
(-0.455065 -0.0133692 0)
(0.0152829 -0.103838 0)
(-0.249804 -0.134432 0)
(0.244627 -0.2494 0)
(0.214641 -0.401662 0)
(0.301826 -0.263555 0)
(0.351116 -0.311266 0)
(0.297916 -0.253361 0)
(0.144616 -0.217656 0)
(-0.3552 1.19248 0)
(-0.400817 0.945518 0)
(-0.425151 0.399628 0)
(-0.371771 0.28024 0)
(-0.431551 0.513701 0)
(-0.218936 0.20509 0)
(-0.368172 -0.0515665 0)
(-0.420101 -0.0248489 0)
(-0.247155 -0.0685148 0)
(-0.226479 -0.238095 0)
(-0.248712 0.00591273 0)
(0.125098 -0.325353 0)
(-0.0505666 -0.0962175 0)
(0.402902 -0.385599 0)
(0.385484 -0.423486 0)
(0.449102 -0.278417 0)
(0.387721 -0.150272 0)
(0.341563 -0.242702 0)
(0.179345 -0.186139 0)
(-0.485032 1.28768 0)
(-0.626215 0.777068 0)
(-0.515001 0.357474 0)
(-0.177477 0.344165 0)
(-0.172948 0.420057 0)
(-0.0221293 0.321052 0)
(-0.207097 0.00682326 0)
(-0.300869 -0.0169001 0)
(-0.200428 -0.171147 0)
(-0.127101 -0.144582 0)
(-0.160535 -0.194842 0)
(0.0933516 -0.36043 0)
(0.322429 -0.263496 0)
(0.467079 -0.43782 0)
(0.449773 -0.368732 0)
(0.502008 -0.238502 0)
(0.412177 -0.113748 0)
(0.375539 -0.151466 0)
(0.196819 -0.110187 0)
(-0.301207 0.499798 0)
(0.274153 0.130039 0)
(-0.291941 0.160105 0)
(-0.0794623 0.19165 0)
(-0.150403 0.19997 0)
(-0.0290696 0.0662783 0)
(-0.200835 -0.0184108 0)
(-0.222217 -0.0784577 0)
(-0.355004 -0.0441033 0)
(-0.376682 -0.124419 0)
(-0.333575 -0.0131159 0)
(-0.335644 -0.146514 0)
(-0.0256251 0.102334 0)
(-0.167397 -0.364764 0)
(-0.233342 -0.143428 0)
(-0.143721 -0.141767 0)
(-0.11096 -0.127593 0)
(-0.0784827 -0.11405 0)
(-0.0977101 -0.0699048 0)
(0.00690545 -0.14458 0)
(0.147521 -0.122481 0)
(-0.0795549 0.31989 0)
(-0.282794 0.314462 0)
(-0.0386529 0.474097 0)
(0.178807 0.198213 0)
(-0.132304 0.217467 0)
(-0.0304147 0.163044 0)
(-0.0713545 0.215532 0)
(0.000718818 0.149247 0)
(-0.0657072 0.00926925 0)
(-0.115091 0.0762234 0)
(-0.256512 -0.0183284 0)
(-0.366309 0.00840077 0)
(-0.25911 -0.199157 0)
(-0.248896 -0.140465 0)
(-0.406909 -0.194305 0)
(-0.407399 -0.252428 0)
(-0.319089 -0.208441 0)
(-0.352362 -0.229422 0)
(-0.378688 -0.21519 0)
(-0.372241 -0.182618 0)
(-0.418999 -0.125989 0)
(-0.481146 -0.144521 0)
(-0.584046 0.125254 0)
(-0.800763 0.246084 0)
(-0.82407 0.353191 0)
(-0.0362507 0.437465 0)
(-0.110359 0.215201 0)
(-0.0515433 0.264101 0)
(0.0582768 0.172819 0)
(0.0251325 0.149429 0)
(-0.0559455 0.00680851 0)
(-0.0343269 0.0344731 0)
(-0.0616233 0.11432 0)
(-0.0302031 0.09661 0)
(-0.205056 0.1104 0)
(-0.250142 -0.132011 0)
(-0.178666 -0.0693946 0)
(-0.373978 -0.0156575 0)
(-0.420876 0.0446346 0)
(-0.540788 -0.0542128 0)
(-0.550273 -0.0771329 0)
(-0.533726 -0.0998908 0)
(-0.615598 0.0680416 0)
(-0.820269 -0.00262333 0)
(-0.856417 -0.067868 0)
(-0.805095 0.130378 0)
(-0.858786 0.236173 0)
(-0.82884 0.397652 0)
(-0.0378831 0.502935 0)
(-0.100199 0.230481 0)
(-0.0763568 0.283493 0)
(-0.0975557 0.109754 0)
(-0.00782603 0.18304 0)
(-0.123193 0.100623 0)
(-0.17332 0.0207962 0)
(-0.200379 -0.00956213 0)
(-0.0948092 0.047812 0)
(0.0145884 0.145183 0)
(-0.221214 0.0187419 0)
(-0.296219 0.0123402 0)
(-0.472457 0.0485652 0)
(-0.516449 0.0728056 0)
(-0.603126 -0.000324804 0)
(-0.620672 -0.128483 0)
(-0.545304 -0.145168 0)
(-0.784572 0.0319798 0)
(-1.09046 0.121361 0)
(-0.83827 0.0333242 0)
(-0.687117 0.0809471 0)
(-0.678571 0.179241 0)
(-0.748573 0.231342 0)
(-0.0528865 0.585902 0)
(0.00466489 0.263714 0)
(0.0519586 0.303828 0)
(-0.0385582 0.153476 0)
(-0.0674722 0.177055 0)
(-0.104256 0.219917 0)
(-0.164327 0.0577671 0)
(-0.362368 -0.0968686 0)
(-0.407714 0.0775891 0)
(-0.208991 0.163032 0)
(-0.448222 0.227214 0)
(-0.471652 0.14599 0)
(-0.458792 0.20135 0)
(-0.423896 0.135184 0)
(-0.753355 -0.0843793 0)
(-0.850722 -0.194616 0)
(-0.558499 -0.081595 0)
(-0.474696 -0.1087 0)
(-0.901129 0.122838 0)
(-0.995843 0.248151 0)
(-0.68875 0.1168 0)
(-0.625266 -0.0153554 0)
(-0.672298 -0.0481935 0)
(-0.00619316 0.57409 0)
(0.0531495 0.389574 0)
(0.0304217 0.3851 0)
(-0.0278388 0.136586 0)
(-0.107383 0.26146 0)
(-0.176719 0.487568 0)
(0.0346129 0.220622 0)
(-0.193728 -0.0306038 0)
(-0.391917 0.310339 0)
(-0.329879 0.387182 0)
(-0.500832 0.347595 0)
(-0.42843 0.210627 0)
(-0.322836 0.315594 0)
(-0.517082 0.174731 0)
(-0.678855 -0.159981 0)
(-0.589287 -0.0344876 0)
(-0.487596 0.1298 0)
(-0.607243 0.12434 0)
(-0.683476 0.0580355 0)
(-0.783538 0.243218 0)
(-0.79268 0.274437 0)
(-0.830213 0.196095 0)
(-0.93999 0.259409 0)
(0.0578326 0.512898 0)
(0.0884848 0.328197 0)
(-0.081145 0.396106 0)
(0.00132375 0.275226 0)
(0.0628497 0.477483 0)
(-0.101957 0.363925 0)
(-0.10073 0.171039 0)
(-0.259399 0.135931 0)
(-0.310782 0.316074 0)
(-0.189183 0.28207 0)
(-0.407711 0.392211 0)
(-0.556468 0.444922 0)
(-0.424156 0.366223 0)
(-0.547114 0.181764 0)
(-0.551766 -0.0355375 0)
(-0.599536 0.068485 0)
(-0.574916 0.0813557 0)
(-0.63496 0.179315 0)
(-0.6956 0.180076 0)
(-0.803027 0.277803 0)
(-0.885646 0.287766 0)
(-0.884475 0.473155 0)
(-1.16303 0.608548 0)
(0.0390911 0.396992 0)
(0.0923478 0.220967 0)
(0.00876628 0.462621 0)
(0.0245678 0.324706 0)
(0.055135 0.500968 0)
(-0.0436023 0.351314 0)
(-0.161378 0.198962 0)
(-0.206181 0.246314 0)
(-0.361762 0.511944 0)
(-0.337977 0.305621 0)
(-0.225699 0.543065 0)
(-0.290136 0.888466 0)
(-0.314268 0.322303 0)
(-0.523324 0.216911 0)
(-0.508706 -0.0679859 0)
(-0.598803 0.0420912 0)
(-0.717907 0.134172 0)
(-0.759591 0.15987 0)
(-0.828674 0.170332 0)
(-0.900302 0.267426 0)
(-0.955681 0.40645 0)
(-1.25895 0.60133 0)
(-1.40124 0.629993 0)
(0.0636538 0.415621 0)
(0.172211 0.347917 0)
(0.169849 0.439614 0)
(0.0539321 0.292978 0)
(0.0241587 0.400313 0)
(-0.115418 0.410769 0)
(-0.182593 0.370601 0)
(-0.0939713 0.472727 0)
(-0.110452 0.435638 0)
(-0.170804 0.189253 0)
(-0.0842444 0.187776 0)
(-0.156981 0.681084 0)
(-0.25886 0.287359 0)
(-0.517853 0.265771 0)
(-0.501882 0.161629 0)
(-0.671083 0.208422 0)
(-0.822622 0.238016 0)
(-0.9353 0.276838 0)
(-1.03921 0.364045 0)
(-1.10695 0.389329 0)
(-1.2047 0.451106 0)
(-1.30476 0.528129 0)
(-1.45626 0.623096 0)
(0.0427865 0.574623 0)
(0.00990811 0.504386 0)
(0.0779911 0.356314 0)
(0.00385336 0.350041 0)
(-0.0512407 0.405082 0)
(-0.131771 0.423406 0)
(0.0599339 0.306613 0)
(0.0254016 0.206536 0)
(0.227975 0.176169 0)
(0.0503528 0.319783 0)
(-0.388329 0.161286 0)
(-0.33344 0.445188 0)
(-0.237202 0.509544 0)
(-0.539035 0.496984 0)
(-0.64247 0.392618 0)
(-0.848437 0.409032 0)
(-0.857003 0.37006 0)
(-0.914081 0.429925 0)
(-1.20474 0.544235 0)
(-1.30592 0.453836 0)
(-1.19235 0.511027 0)
(-1.12858 0.550434 0)
(-1.15639 0.611795 0)
(0.0792238 0.438382 0)
(-0.0432275 0.374397 0)
(-0.166365 0.314983 0)
(-0.0130861 0.554361 0)
(-0.174075 0.333979 0)
(-0.216588 0.400929 0)
(-0.298959 0.508524 0)
(-0.303648 0.543508 0)
(-0.225334 0.571145 0)
(-0.35482 0.622868 0)
(-0.785391 0.485889 0)
(-0.652936 0.719728 0)
(-0.622557 0.660476 0)
(-0.884587 0.520084 0)
(-1.06193 0.531676 0)
(-1.16641 0.561992 0)
(-1.05728 0.649967 0)
(-0.999805 0.524433 0)
(-1.32261 0.537701 0)
(-1.38249 0.592096 0)
(-1.13187 0.727665 0)
(-1.08455 0.738224 0)
(-1.1693 0.529527 0)
(0.0218063 0.438901 0)
(-0.137946 0.449603 0)
(-0.275194 0.731785 0)
(-0.720957 0.659016 0)
(-0.977156 0.544483 0)
(-0.984664 0.382149 0)
(-0.950411 0.321155 0)
(-0.812351 0.363822 0)
(-0.885892 0.2052 0)
(-1.16981 0.231714 0)
(-1.27167 0.483055 0)
(-1.06001 0.624972 0)
(-1.06225 0.621793 0)
(-1.08527 0.639306 0)
(-1.18232 0.537923 0)
(-1.1578 0.630421 0)
(-1.09044 0.661475 0)
(-1.1001 0.542767 0)
(-1.26941 0.643277 0)
(-1.27911 0.746405 0)
(-1.17272 0.734796 0)
(-1.14263 0.611798 0)
(-1.31065 0.500053 0)
(-0.00829815 0.515046 0)
(-0.138263 0.677069 0)
(-0.761096 1.02576 0)
(-1.03855 0.718703 0)
(-1.12951 0.519953 0)
(-1.06617 0.357428 0)
(-1.01727 0.330339 0)
(-1.44633 0.34219 0)
(-1.63637 0.325565 0)
(-1.43072 0.448257 0)
(-1.42218 0.629507 0)
(-1.43091 0.657433 0)
(-1.36444 0.714608 0)
(-1.50391 0.81214 0)
(-1.46981 0.776079 0)
(-1.30016 0.904403 0)
(-1.39836 0.730365 0)
(-1.40476 0.680155 0)
(-1.34494 0.741411 0)
(-1.3737 0.734427 0)
(-1.26253 0.596925 0)
(-1.12443 0.285784 0)
(-1.02418 0.0805746 0)
(0.00437775 0.741299 0)
(-0.42985 1.04663 0)
(-0.863419 1.32877 0)
(-1.16052 0.943515 0)
(-1.03764 0.576444 0)
(-1.0372 0.412704 0)
(-1.30843 0.310935 0)
(-1.53842 0.293181 0)
(-1.59384 0.473002 0)
(-1.56443 0.57903 0)
(-1.65383 0.573747 0)
(-1.66304 0.600139 0)
(-1.6239 0.620908 0)
(-1.68765 0.78722 0)
(-1.66129 0.85747 0)
(-1.73336 0.874745 0)
(-1.83333 0.791306 0)
(-1.44555 0.786113 0)
(-1.32793 0.693737 0)
(-1.35421 0.602554 0)
(-1.10554 0.467865 0)
(-0.807601 0.107301 0)
(-0.695382 -0.0823591 0)
(-0.0530549 1.20117 0)
(-0.248154 1.3783 0)
(-0.655663 1.48992 0)
(-0.999205 1.10187 0)
(-1.09771 0.885868 0)
(-1.23096 0.549371 0)
(-1.51488 0.504415 0)
(-1.55936 0.430473 0)
(-1.54074 0.552775 0)
(-1.74152 0.630234 0)
(-1.91296 0.702236 0)
(-1.97436 0.62396 0)
(-1.86715 0.542146 0)
(-1.80275 0.58272 0)
(-1.81016 0.601505 0)
(-1.81048 0.57182 0)
(-1.69396 0.710523 0)
(-1.33621 0.598826 0)
(-1.21757 0.333507 0)
(-1.00829 0.29222 0)
(-0.839565 0.175365 0)
(-0.605385 -0.0499971 0)
(-0.537068 -0.183758 0)
(-0.0204342 1.50125 0)
(-0.284929 1.55725 0)
(-0.533279 1.56854 0)
(-0.807213 1.23951 0)
(-1.01687 1.00191 0)
(-1.24317 0.694262 0)
(-1.40077 0.630834 0)
(-1.36149 0.546876 0)
(-1.34438 0.535778 0)
(-1.52039 0.579394 0)
(-1.90868 0.692036 0)
(-2.13505 0.699146 0)
(-1.7373 0.646445 0)
(-1.49232 0.487242 0)
(-1.43949 0.343895 0)
(-1.262 0.328617 0)
(-1.16196 0.394986 0)
(-0.978474 0.381536 0)
(-0.916967 0.285001 0)
(-0.749975 0.178556 0)
(-0.633722 0.0215331 0)
(-0.141951 -0.209005 0)
(-0.134726 -0.271646 0)
(-0.132074 1.79922 0)
(-0.144724 1.81227 0)
(-0.203904 1.75173 0)
(-0.343408 1.47575 0)
(-0.668925 1.18478 0)
(-1.06388 0.83778 0)
(-1.38347 0.759042 0)
(-1.42423 0.812002 0)
(-1.30412 0.715322 0)
(-1.34985 0.667092 0)
(-1.74015 0.594794 0)
(-1.82951 0.683364 0)
(-1.35748 0.7402 0)
(-1.16601 0.391985 0)
(-1.14156 0.33387 0)
(-1.14557 0.321593 0)
(-1.16372 0.380363 0)
(-1.20077 0.302889 0)
(-1.28233 0.276315 0)
(-0.666573 0.2218 0)
(-0.318475 -0.430625 0)
(-0.123126 -0.515524 0)
(-0.150759 -0.590006 0)
(-0.0814311 2.09998 0)
(-0.0921284 1.8476 0)
(0.0172761 1.76533 0)
(-0.0492633 1.53491 0)
(-0.444111 1.35634 0)
(-1.0226 1.02768 0)
(-1.12864 0.927226 0)
(-1.17344 1.06004 0)
(-1.16087 1.00118 0)
(-1.33093 0.722497 0)
(-1.4115 0.595259 0)
(-1.33434 0.627846 0)
(-1.22769 0.619622 0)
(-1.23276 0.36445 0)
(-1.1902 0.366981 0)
(-1.38798 0.412418 0)
(-1.51471 0.368683 0)
(-1.27114 -0.109514 0)
(-0.874447 -0.0834804 0)
(-0.621104 -0.688903 0)
(-0.486194 -0.827753 0)
(-0.330257 -0.853889 0)
(-0.279462 -0.961894 0)
(-0.292832 2.32039 0)
(-0.0337857 1.98404 0)
(0.07346 1.89441 0)
(0.00298978 1.64438 0)
(-0.382733 1.63251 0)
(-1.00748 1.37187 0)
(-1.00994 1.26766 0)
(-0.90883 1.23314 0)
(-1.03209 1.04649 0)
(-1.15817 0.853312 0)
(-1.23588 0.749627 0)
(-1.17273 0.596696 0)
(-1.20896 0.288965 0)
(-1.14582 0.308242 0)
(-1.25137 0.506528 0)
(-1.27232 0.486001 0)
(-1.26354 0.24085 0)
(-1.19059 0.0483437 0)
(-0.858401 -0.613662 0)
(-0.581457 -0.8368 0)
(-0.283235 -0.825908 0)
(-0.284087 -0.944946 0)
(-0.0420593 -0.731109 0)
(-0.275432 2.7596 0)
(-0.0958879 2.39746 0)
(-0.0671566 1.93996 0)
(-0.101536 1.80706 0)
(-0.453102 1.75487 0)
(-0.872748 1.53057 0)
(-0.853404 1.52366 0)
(-0.857565 1.2414 0)
(-1.01608 1.14084 0)
(-1.02011 0.854934 0)
(-1.1554 0.651678 0)
(-1.07232 0.341814 0)
(-1.21022 0.24225 0)
(-1.05119 0.369656 0)
(-1.04935 0.498635 0)
(-0.878918 0.436397 0)
(-0.648401 0.0518119 0)
(-0.465392 -0.310073 0)
(-0.237942 -0.613847 0)
(-0.360286 -0.679761 0)
(-0.223706 -0.7011 0)
(-0.0853777 -0.675586 0)
(0.0255104 -0.528595 0)
(-0.144499 3.03047 0)
(-0.248836 2.35953 0)
(-0.265231 1.97246 0)
(-0.297014 1.88672 0)
(-0.524207 1.84272 0)
(-0.767776 1.6306 0)
(-0.822222 1.50444 0)
(-0.844419 1.28982 0)
(-0.953183 1.21779 0)
(-0.985536 0.938842 0)
(-0.944259 0.683354 0)
(-0.736353 0.381602 0)
(-0.966596 0.273592 0)
(-0.895689 0.362419 0)
(-0.823374 0.363507 0)
(-0.488386 0.15278 0)
(-0.369599 -0.120304 0)
(-0.170567 -0.355453 0)
(0.0372949 -0.866428 0)
(-0.141737 -0.808384 0)
(-0.0986197 -0.707486 0)
(-0.120299 -0.490985 0)
(-0.0581014 -0.463072 0)
(-0.354434 3.42644 0)
(-0.369891 2.49015 0)
(-0.445243 1.99447 0)
(-0.468331 2.0628 0)
(-0.558927 2.05072 0)
(-0.791404 1.76328 0)
(-0.820267 1.60128 0)
(-0.894727 1.46725 0)
(-0.937762 1.43294 0)
(-0.725525 1.10962 0)
(-0.686089 0.982103 0)
(-0.828493 0.45241 0)
(-0.928165 0.420973 0)
(-0.587215 0.255328 0)
(-0.615572 0.126821 0)
(-0.137628 -0.0528931 0)
(0.104517 -0.581036 0)
(0.202527 -0.541071 0)
(0.13046 -0.62597 0)
(0.00590058 -0.655376 0)
(0.0750338 -0.699625 0)
(0.0962049 -0.710811 0)
(0.155367 -0.786528 0)
(-0.0335145 3.68933 0)
(-0.520346 2.61123 0)
(-0.646097 2.39994 0)
(-0.341211 2.32767 0)
(-0.62273 2.1629 0)
(-0.916395 2.06583 0)
(-0.945254 2.12678 0)
(-0.888521 1.9619 0)
(-0.68726 1.98227 0)
(-0.50439 1.57104 0)
(-0.839204 0.89449 0)
(-0.824089 0.440962 0)
(-0.814212 0.487559 0)
(-0.396114 -0.224617 0)
(-0.27681 -0.488992 0)
(-0.0575547 -0.464918 0)
(0.32747 -0.63217 0)
(0.371403 -0.548704 0)
(0.2746 -0.713697 0)
(0.155517 -0.677639 0)
(0.195417 -0.728172 0)
(0.0476427 -0.881098 0)
(0.118198 -0.863839 0)
(0.10466 3.76584 0)
(-0.353904 2.50711 0)
(-0.545977 2.61343 0)
(-0.532822 2.49343 0)
(-0.704251 2.32901 0)
(-0.665512 2.29054 0)
(-0.594858 2.51925 0)
(-0.869924 2.26503 0)
(-0.575026 1.93304 0)
(-0.567866 1.48183 0)
(-0.937645 0.937836 0)
(-0.651234 0.422349 0)
(-0.684551 0.174205 0)
(-0.282887 -0.396015 0)
(-0.073497 -0.624537 0)
(0.264421 -0.705174 0)
(0.498692 -0.744263 0)
(0.424196 -0.812936 0)
(0.353849 -0.959594 0)
(0.385604 -0.897197 0)
(0.0891734 -0.855423 0)
(0.102331 -0.88699 0)
(0.240508 -0.714203 0)
(0.0424498 3.80415 0)
(-0.284398 2.47923 0)
(-0.453423 2.45228 0)
(-0.450061 2.51407 0)
(-0.543428 2.54499 0)
(-0.33796 2.84605 0)
(-0.600181 2.44496 0)
(-0.87438 2.06765 0)
(-0.47485 1.52986 0)
(-0.389554 1.15381 0)
(-0.732953 0.987037 0)
(-0.0957393 0.514449 0)
(-0.201501 -0.0654199 0)
(0.236171 -0.501353 0)
(0.199214 -0.561339 0)
(0.303813 -0.699525 0)
(0.416795 -0.7486 0)
(0.420783 -0.851365 0)
(0.450022 -0.982999 0)
(0.398394 -1.00078 0)
(0.336119 -0.961349 0)
(0.292113 -0.676896 0)
(0.200943 -0.649828 0)
(-0.0723169 3.90202 0)
(-0.292544 2.56329 0)
(-0.298028 2.37706 0)
(-0.213868 2.4272 0)
(-0.167144 2.4346 0)
(-0.274954 2.73343 0)
(-0.732235 2.24493 0)
(-0.864251 1.69625 0)
(-0.328569 1.36912 0)
(0.0537713 0.582937 0)
(-0.112543 0.671856 0)
(0.356448 0.311481 0)
(0.560881 -0.182621 0)
(0.537776 -0.733082 0)
(0.374265 -0.771875 0)
(0.518392 -0.756323 0)
(0.536786 -0.683595 0)
(0.392572 -0.704078 0)
(0.398511 -0.699664 0)
(0.501711 -0.803227 0)
(0.435141 -0.762204 0)
(0.346192 -0.61773 0)
(0.28304 -0.612118 0)
(-0.146528 3.76395 0)
(-0.396854 2.61466 0)
(-0.297668 2.40932 0)
(-0.110683 2.51973 0)
(-0.0202873 2.37602 0)
(-0.129324 2.38223 0)
(-0.629517 2.19463 0)
(-0.574705 1.39174 0)
(-0.483235 0.861485 0)
(0.0459068 0.529068 0)
(0.36549 0.528735 0)
(0.650544 0.0517354 0)
(0.756209 -0.411758 0)
(0.639895 -0.8655 0)
(0.707736 -0.772679 0)
(0.654773 -0.664579 0)
(0.599786 -0.764467 0)
(0.395929 -0.794569 0)
(0.30769 -0.602905 0)
(0.337544 -0.654605 0)
(0.527516 -0.758629 0)
(0.438613 -0.688715 0)
(0.214607 -0.580899 0)
(-0.174981 3.3697 0)
(-0.387348 2.56019 0)
(-0.230403 2.42515 0)
(-0.117297 2.54528 0)
(-0.132977 2.35825 0)
(0.0566714 2.18307 0)
(-0.32814 2.13752 0)
(0.0770909 0.846047 0)
(0.0909974 0.333022 0)
(0.420965 0.116285 0)
(0.54725 0.0483601 0)
(0.683335 -0.211596 0)
(0.71622 -0.596541 0)
(0.769499 -0.623645 0)
(0.817308 -0.715667 0)
(0.677337 -0.756538 0)
(0.433644 -0.940201 0)
(0.533698 -0.805788 0)
(0.475914 -0.719747 0)
(0.245107 -0.667724 0)
(0.411826 -0.619147 0)
(0.506714 -0.642513 0)
(0.327054 -0.663043 0)
(-0.137814 3.39303 0)
(-0.329199 2.57837 0)
(-0.215598 2.38121 0)
(-0.203583 2.35202 0)
(-0.25222 2.13958 0)
(0.0618771 2.11432 0)
(0.00389702 2.01278 0)
(0.380575 0.819215 0)
(0.336053 0.217661 0)
(0.460575 0.0375094 0)
(0.498319 -0.306004 0)
(0.626001 -0.32826 0)
(0.780706 -0.447485 0)
(0.795452 -0.492192 0)
(0.712428 -0.511273 0)
(0.526527 -0.768676 0)
(0.592505 -0.649427 0)
(0.557623 -0.632385 0)
(0.348479 -0.75408 0)
(0.398679 -0.622045 0)
(0.516245 -0.495397 0)
(0.35678 -0.548893 0)
(0.132306 -0.800233 0)
(-0.149404 3.43972 0)
(-0.371713 2.59547 0)
(-0.298334 2.34487 0)
(-0.398473 2.22599 0)
(-0.27331 2.01033 0)
(-0.0386265 1.94217 0)
(0.167431 1.8102 0)
(0.507983 0.746679 0)
(0.61402 0.180424 0)
(0.625146 -0.126437 0)
(0.735075 -0.416752 0)
(0.855849 -0.383288 0)
(0.828588 -0.401214 0)
(0.798229 -0.45278 0)
(0.652754 -0.439887 0)
(0.49463 -0.503172 0)
(0.544164 -0.46809 0)
(0.437805 -0.63142 0)
(0.433945 -0.543567 0)
(0.476541 -0.476332 0)
(0.424762 -0.564337 0)
(0.212814 -0.637041 0)
(0.311701 -0.542827 0)
(-0.224754 3.48642 0)
(-0.428368 2.67235 0)
(-0.388555 2.37831 0)
(-0.544018 2.27143 0)
(-0.339922 1.95963 0)
(-0.142919 1.57672 0)
(0.243151 1.39388 0)
(0.639238 0.463709 0)
(0.771859 0.151329 0)
(0.674239 0.0358924 0)
(0.757384 -0.1783 0)
(1.03297 -0.343069 0)
(0.878973 -0.456253 0)
(0.821741 -0.425962 0)
(0.714557 -0.424834 0)
(0.463157 -0.459691 0)
(0.423781 -0.449144 0)
(0.434414 -0.436718 0)
(0.452321 -0.389994 0)
(0.353664 -0.499197 0)
(0.411583 -0.499487 0)
(0.395611 -0.435993 0)
(0.300526 -0.390921 0)
(-0.175054 3.599 0)
(-0.356741 2.82369 0)
(-0.373115 2.48514 0)
(-0.570955 2.32861 0)
(-0.354055 1.98378 0)
(-0.101446 1.26664 0)
(0.241491 1.00742 0)
(0.868671 0.443961 0)
(1.2932 -0.00600257 0)
(1.13017 -0.146229 0)
(0.763106 -0.174902 0)
(0.802923 -0.23928 0)
(0.809008 -0.437316 0)
(0.823496 -0.43696 0)
(0.652633 -0.407853 0)
(0.494931 -0.412138 0)
(0.553466 -0.405883 0)
(0.508387 -0.330698 0)
(0.401758 -0.35279 0)
(0.411115 -0.379314 0)
(0.464216 -0.345226 0)
(0.341581 -0.427944 0)
(0.225637 -0.391149 0)
(0.113411 3.86905 0)
(-0.0375149 3.01556 0)
(-0.259555 2.42002 0)
(-0.455876 2.07715 0)
(-0.201293 1.7403 0)
(0.126903 0.923175 0)
(0.572584 0.616231 0)
(0.842263 0.341181 0)
(0.970968 0.0685218 0)
(0.836018 -0.254096 0)
(0.822433 -0.215963 0)
(0.757574 -0.256729 0)
(0.754545 -0.264442 0)
(0.948371 -0.443985 0)
(0.863301 -0.416547 0)
(0.518762 -0.252235 0)
(0.496089 -0.300671 0)
(0.477199 -0.275824 0)
(0.412526 -0.35337 0)
(0.358853 -0.29831 0)
(0.317833 -0.327673 0)
(0.30131 -0.503051 0)
(0.277333 -0.406877 0)
(0.286816 3.90859 0)
(0.284921 3.37325 0)
(0.279716 2.49265 0)
(0.127153 2.02705 0)
(0.393774 1.40949 0)
(0.653644 0.53371 0)
(0.965027 0.202659 0)
(0.992812 0.191358 0)
(1.02892 0.0512393 0)
(0.946874 0.0118398 0)
(0.838805 -0.106347 0)
(0.802226 -0.0407544 0)
(0.662075 -0.0628502 0)
(0.731189 -0.115303 0)
(0.780663 -0.353489 0)
(0.54796 -0.399668 0)
(0.471479 -0.39568 0)
(0.358414 -0.293477 0)
(0.345697 -0.378974 0)
(0.422709 -0.294673 0)
(0.279341 -0.314691 0)
(0.217457 -0.315393 0)
(0.238641 -0.326013 0)
(0.320671 3.53986 0)
(0.553213 3.30926 0)
(0.790616 2.57757 0)
(0.805309 1.96038 0)
(0.792993 1.20969 0)
(1.07148 0.527268 0)
(1.622 0.0472947 0)
(1.38262 0.181669 0)
(0.893622 -0.0326192 0)
(0.856003 -0.0125857 0)
(0.950692 0.079978 0)
(0.919783 -0.0378041 0)
(0.635089 -0.0760183 0)
(0.674034 -0.0694822 0)
(0.640929 -0.160935 0)
(0.438625 -0.283121 0)
(0.591912 -0.359155 0)
(0.515975 -0.330196 0)
(0.374443 -0.228722 0)
(0.453157 -0.205432 0)
(0.309966 -0.294951 0)
(0.261244 -0.28678 0)
(0.25105 -0.296398 0)
(0.228849 2.35584 0)
(1.06867 3.00531 0)
(1.20901 2.63202 0)
(1.24206 1.99913 0)
(1.30546 1.16821 0)
(1.22706 0.669473 0)
(1.4186 0.363475 0)
(1.30464 0.0163838 0)
(0.905203 0.0447825 0)
(1.06793 0.124728 0)
(0.928631 0.193057 0)
(0.654874 -0.0723755 0)
(0.620327 -0.0571578 0)
(0.576944 -0.0592377 0)
(0.56126 -0.133245 0)
(0.4808 -0.125434 0)
(0.504014 -0.133224 0)
(0.519814 -0.303263 0)
(0.478078 -0.170445 0)
(0.447243 -0.203673 0)
(0.198965 -0.303861 0)
(0.231805 -0.304355 0)
(0.232734 -0.326973 0)
(-0.000876585 1.47527 0)
(1.13232 2.69415 0)
(1.25122 2.5184 0)
(1.29448 1.94106 0)
(1.38817 1.15627 0)
(1.38305 0.760398 0)
(1.40889 0.60391 0)
(1.15067 0.331108 0)
(1.01366 0.333962 0)
(1.00148 0.167229 0)
(0.853636 0.0753876 0)
(0.679098 0.0504501 0)
(0.65376 0.0965768 0)
(0.626851 0.00726917 0)
(0.535361 -0.0194902 0)
(0.442317 0.00606793 0)
(0.396965 -0.0799692 0)
(0.44498 -0.169937 0)
(0.51905 -0.0893787 0)
(0.326065 -0.291732 0)
(0.195555 -0.323822 0)
(0.240084 -0.262985 0)
(0.227698 -0.31944 0)
(-0.160471 1.24875 0)
(0.626517 1.82283 0)
(0.858382 2.01387 0)
(1.13357 1.84726 0)
(1.14376 1.40164 0)
(1.1906 1.07241 0)
(1.00387 0.847157 0)
(0.892324 0.595373 0)
(0.820483 0.498196 0)
(0.808251 0.223805 0)
(0.838609 0.164063 0)
(0.711951 0.178136 0)
(0.531971 -0.00591576 0)
(0.465165 0.0606795 0)
(0.578037 0.0694277 0)
(0.327723 -0.0349683 0)
(0.341189 -0.0164031 0)
(0.556139 -0.120489 0)
(0.453361 -0.100458 0)
(0.211415 -0.266519 0)
(0.190966 -0.229192 0)
(0.225735 -0.293216 0)
(0.179493 -0.286647 0)
(-0.249506 1.30682 0)
(0.17251 1.63963 0)
(0.741147 1.75299 0)
(1.02149 1.5829 0)
(0.762497 1.24514 0)
(0.890779 1.00094 0)
(0.835086 0.891657 0)
(0.723015 0.629648 0)
(0.652004 0.534417 0)
(0.667613 0.523903 0)
(0.697174 0.4027 0)
(0.461834 0.279492 0)
(0.542497 0.0643489 0)
(0.608826 0.203284 0)
(0.463462 0.096745 0)
(0.25394 -0.0723232 0)
(0.267396 -0.0175692 0)
(0.357998 -0.0266948 0)
(0.334506 -0.227236 0)
(0.197099 -0.233275 0)
(0.205795 -0.147393 0)
(0.253384 -0.186122 0)
(0.143433 -0.205569 0)
(-0.138617 1.38444 0)
(0.158841 1.7433 0)
(0.504237 1.7354 0)
(0.675793 1.47585 0)
(0.56703 1.10463 0)
(0.686829 1.05043 0)
(0.592224 1.05387 0)
(0.596912 0.931224 0)
(0.657829 0.620741 0)
(0.616318 0.630181 0)
(0.585055 0.404912 0)
(0.326882 0.375107 0)
(0.455513 0.385425 0)
(0.528038 0.211137 0)
(0.340333 0.0797461 0)
(0.275581 0.0205017 0)
(0.327465 0.0238086 0)
(0.347193 0.00762875 0)
(0.175987 -0.157252 0)
(0.245054 -0.183123 0)
(0.180123 -0.115495 0)
(0.170235 -0.110649 0)
(0.152831 -0.227685 0)
(-0.0425548 1.29248 0)
(0.149712 1.66864 0)
(0.289194 1.40114 0)
(0.377338 1.27787 0)
(0.517787 1.2363 0)
(0.687273 1.07728 0)
(0.61061 0.98473 0)
(0.391128 0.892309 0)
(0.474336 0.640653 0)
(0.508844 0.557986 0)
(0.364344 0.315018 0)
(0.353872 0.386402 0)