/*--------------------------------*- C++ -*----------------------------------*\
| =========                 |                                                 |
| \\      /  F ield         | foam-extend: Open Source CFD                    |
|  \\    /   O peration     | Version:     4.1                                |
|   \\  /    A nd           | Web:         http://www.foam-extend.org         |
|    \\/     M anipulation  |                                                 |
\*---------------------------------------------------------------------------*/
FoamFile
{
    version     2.0;
    format      ascii;
    class       volVectorField;
    location    "0.9";
    object      U_0;
}
// * * * * * * * * * * * * * * * * * * * * * * * * * * * * * * * * * * * * * //

dimensions      [0 1 -1 0 0 0 0];

internalField   nonuniform List<vector> 
2268
(
(-0.0514147 -0.0100525 0)
(-0.071433 0.0659378 0)
(-0.242598 0.00538821 0)
(-0.230102 -0.00952651 0)
(-0.345177 -0.0544886 0)
(-0.213155 -0.0519371 0)
(5.91855e-05 -0.014266 0)
(-0.13487 -0.0430975 0)
(0.117816 -0.0585451 0)
(-0.0512579 0.0955058 0)
(-0.174479 0.00746572 0)
(-0.136346 0.0154491 0)
(-0.13154 -0.0226054 0)
(-0.0996161 -0.0228246 0)
(-0.0637175 8.29081e-05 0)
(-0.0432432 -0.00295903 0)
(-0.00221761 0.00192911 0)
(0.00141602 0.00608995 0)
(-0.027055 0.0042148 0)
(-0.030796 -0.0133287 0)
(-0.0066196 -0.0144769 0)
(0.0116539 0.00300083 0)
(-0.0296136 -0.0155736 0)
(-0.111108 0.0688906 0)
(-0.209195 0.149603 0)
(-0.396056 0.0650625 0)
(-0.258119 0.0461383 0)
(-0.35163 -0.0576153 0)
(-0.343665 -0.0433236 0)
(-0.568412 -0.0179913 0)
(-0.675003 -0.00833274 0)
(-0.390388 0.0124443 0)
(-0.215469 0.0564778 0)
(-0.182451 0.0236375 0)
(-0.201938 -0.0249846 0)
(-0.164396 0.00371844 0)
(-0.113177 -0.115714 0)
(-0.0550624 -0.0262245 0)
(-0.0389759 -0.0124349 0)
(-0.0137665 -0.0136569 0)
(-0.00244198 0.000265811 0)
(0.0177874 0.00217656 0)
(0.0291741 0.0187822 0)
(0.0130379 -0.00644108 0)
(0.0140211 0.00631135 0)
(0.0223077 0.00761037 0)
(-0.143879 0.130582 0)
(-0.269036 0.0625139 0)
(-0.333057 0.0889922 0)
(-0.258742 0.107502 0)
(-0.293738 -0.0349119 0)
(-0.254383 -0.000503317 0)
(-0.511687 -0.0808874 0)
(-0.590216 -0.0626548 0)
(-0.259432 -0.0313677 0)
(-0.0859355 -0.0979267 0)
(-0.0564301 0.0734958 0)
(-0.258016 -0.0673895 0)
(-0.257967 0.00478725 0)
(-0.186746 -0.102266 0)
(-0.058644 -0.0171983 0)
(-0.0548642 -0.0341129 0)
(-0.0192735 -0.00166318 0)
(-0.00945076 -0.00977473 0)
(0.0187199 -0.000593335 0)
(0.0371468 -0.00369679 0)
(0.0141822 -0.0130957 0)
(0.0120332 -0.000574487 0)
(0.0171864 0.00434748 0)
(-0.205333 0.166122 0)
(-0.304376 0.0980146 0)
(-0.312456 0.126814 0)
(-0.307944 0.0229782 0)
(-0.320567 -0.00388914 0)
(-0.258763 0.0392482 0)
(-0.443822 -0.100389 0)
(-0.482782 -0.0765618 0)
(-0.299111 -0.0449898 0)
(-0.303898 -0.0243024 0)
(-0.13364 0.102135 0)
(-0.314954 -0.0316416 0)
(-0.276097 -0.00418651 0)
(-0.221945 -0.121869 0)
(-0.0888641 -0.130793 0)
(-0.0991915 -0.0217261 0)
(-0.0356599 -0.0263419 0)
(-0.0274777 -0.0115271 0)
(0.0212036 -0.0108062 0)
(0.033991 0.00125715 0)
(0.0158372 0.00286468 0)
(0.00842401 0.00418647 0)
(0.00968791 0.0164245 0)
(-0.2746 0.24205 0)
(-0.285168 0.264636 0)
(-0.262527 0.180722 0)
(-0.269813 0.023444 0)
(-0.354944 0.0812275 0)
(-0.353713 0.0242288 0)
(-0.476991 -0.140292 0)
(-0.522735 -0.121301 0)
(-0.451057 -0.171877 0)
(-0.340165 -0.0749043 0)
(-0.307896 0.087441 0)
(-0.34788 -0.0407813 0)
(-0.281966 -0.0653242 0)
(-0.269515 -0.190083 0)
(-0.0782237 -0.145466 0)
(-0.0498268 -0.0246121 0)
(-0.065787 -0.0241555 0)
(-0.0449963 -0.0380917 0)
(0.0163719 -0.0160821 0)
(0.0247645 -0.0147402 0)
(-0.00134257 -0.00190481 0)
(0.0126893 0.0171137 0)
(0.00708071 0.0354569 0)
(-0.32211 0.312271 0)
(-0.171902 0.281591 0)
(-0.124651 0.14447 0)
(0.0620087 0.0249166 0)
(-0.284282 0.154259 0)
(-0.301749 0.071767 0)
(-0.382698 -0.124743 0)
(-0.563548 -0.0832774 0)
(-0.521922 -0.157776 0)
(-0.319806 -0.0669595 0)
(-0.340156 0.111769 0)
(-0.370218 -0.0676807 0)
(-0.276898 -0.129839 0)
(-0.247077 -0.241718 0)
(-0.105252 -0.111 0)
(-0.036933 -0.0207547 0)
(-0.0799565 -0.0638545 0)
(-0.0581971 -0.025963 0)
(0.0113563 -0.0282773 0)
(0.0222586 0.00281353 0)
(0.0148399 0.000457757 0)
(0.0194567 0.000909522 0)
(-0.0112526 -0.0108858 0)
(-0.355589 0.366173 0)
(-0.187564 0.116975 0)
(-0.16181 0.0758797 0)
(-0.27541 0.123243 0)
(-0.295974 0.159763 0)
(-0.235218 0.054422 0)
(-0.244697 -0.0996958 0)
(-0.386752 -0.106343 0)
(-0.402993 -0.0801805 0)
(-0.257604 -0.0435609 0)
(-0.342485 -0.0179302 0)
(-0.297147 -0.017178 0)
(-0.2595 -0.0388753 0)
(-0.182479 -0.238807 0)
(-0.159786 -0.214349 0)
(-0.144679 -0.0129321 0)
(-0.117561 -0.137615 0)
(-0.0400298 -0.0566428 0)
(0.0118011 -0.0573895 0)
(0.0313905 -0.00429725 0)
(0.00258754 -0.00738666 0)
(0.0309313 0.0549972 0)
(-0.0178994 0.0787783 0)
(-0.353089 0.533279 0)
(0.196429 0.139549 0)
(-0.186483 0.124556 0)
(-0.207266 0.178741 0)
(-0.184294 0.135734 0)
(-0.0414605 0.0528158 0)
(-0.129049 -0.0567656 0)
(-0.209216 -0.16926 0)
(-0.278923 -0.0264938 0)
(-0.171192 -0.122738 0)
(-0.240626 0.0283259 0)
(-0.316876 -0.0933474 0)
(-0.264793 0.00595308 0)
(-0.185404 -0.341534 0)
(-0.219785 -0.195184 0)
(-0.145159 -0.0507159 0)
(-0.140549 -0.137884 0)
(-0.0194385 -0.0770193 0)
(-0.0195685 -0.0492291 0)
(-0.017767 0.0181944 0)
(0.0752204 -0.0169334 0)
(0.114839 0.0159534 0)
(-0.00178251 -0.0582431 0)
(-0.363632 0.112045 0)
(-0.444733 0.0472193 0)
(-0.711311 0.0713839 0)
(-0.953479 0.0379806 0)
(-1.00315 -0.0495653 0)
(-0.942586 -0.00327417 0)
(-0.980819 0.0368105 0)
(-1.21033 -0.151901 0)
(-1.31997 -0.0750821 0)
(-1.2096 -0.11961 0)
(-1.22423 0.0210889 0)
(-1.16704 0.137719 0)
(-1.0753 -0.0412511 0)
(-1.03168 -0.00796202 0)
(-1.0249 0.0024886 0)
(-0.850887 -0.150394 0)
(-0.750235 -0.166953 0)
(-0.579508 0.0433214 0)
(-0.0894247 -0.0925642 0)
(-0.31377 0.275658 0)
(-0.377854 0.105851 0)
(-0.622214 0.0971656 0)
(-0.909887 0.0720267 0)
(-0.963101 0.0384549 0)
(-0.817867 0.0360155 0)
(-1.02169 -0.017764 0)
(-1.25131 -0.103688 0)
(-1.35777 0.0350976 0)
(-1.15444 0.093521 0)
(-1.07283 0.0374854 0)
(-1.14753 0.12735 0)
(-0.996819 0.0264855 0)
(-0.897011 -0.0107144 0)
(-0.962553 -0.0397694 0)
(-0.745324 0.00969014 0)
(-0.532194 -0.198921 0)
(-0.393124 -0.0477153 0)
(-0.0863103 -0.205137 0)
(-0.379558 0.627487 0)
(-0.339046 0.319513 0)
(-0.271053 0.245102 0)
(-0.788248 -0.0111142 0)
(-0.980028 0.202116 0)
(-0.853288 -0.0194268 0)
(-0.95176 -0.127025 0)
(-1.06769 -0.0602431 0)
(-1.09723 -0.0637487 0)
(-1.04943 0.154539 0)
(-0.941015 -0.0819241 0)
(-0.94442 -0.0912457 0)
(-0.919835 0.15955 0)
(-0.760625 -0.141744 0)
(-0.750175 -0.259817 0)
(-0.701125 -0.0492912 0)
(-0.37158 -0.264008 0)
(-0.248683 -0.165474 0)
(0.0188417 -0.279251 0)
(-0.386415 0.706725 0)
(-0.21695 0.600376 0)
(-0.386603 0.280392 0)
(-0.815424 0.22913 0)
(-0.94131 0.334731 0)
(-0.841645 0.0486135 0)
(-0.954988 -0.101878 0)
(-1.06628 -0.18652 0)
(-1.07517 0.0506138 0)
(-1.02366 0.00221806 0)
(-0.948118 0.0623913 0)
(-0.777508 0.0256756 0)
(-0.801298 0.0518922 0)
(-0.422032 -0.0677629 0)
(-0.251102 -0.340244 0)
(-0.191547 -0.250212 0)
(-0.092598 -0.483489 0)
(-0.154602 -0.218683 0)
(0.0483268 -0.309782 0)
(-0.34008 0.861171 0)
(-0.305115 0.664225 0)
(-0.400014 0.2937 0)
(-0.714755 0.207372 0)
(-0.796086 0.245522 0)
(-0.680775 0.268869 0)
(-0.758042 -0.064412 0)
(-0.924358 -0.118456 0)
(-0.946632 0.0916643 0)
(-0.850737 -0.067144 0)
(-0.664797 0.0954977 0)
(-0.39741 -0.149778 0)
(-0.403824 -0.209711 0)
(-0.251135 -0.150933 0)
(-0.00824195 -0.472131 0)
(0.0914801 -0.392017 0)
(0.0559655 -0.648868 0)
(0.139443 -0.268693 0)
(0.0883502 -0.285325 0)
(-0.425469 0.974056 0)
(-0.277885 0.814797 0)
(-0.395936 0.349503 0)
(-0.525777 0.193551 0)
(-0.617607 0.334306 0)
(-0.398166 0.235754 0)
(-0.463942 -0.128907 0)
(-0.620109 0.0187116 0)
(-0.575964 -0.136891 0)
(-0.609538 0.0689255 0)
(-0.461738 -0.0117158 0)
(0.00875109 -0.103141 0)
(-0.254926 -0.133387 0)
(0.235062 -0.24499 0)
(0.20683 -0.403239 0)
(0.296378 -0.263613 0)
(0.350358 -0.316089 0)
(0.298956 -0.259207 0)
(0.145096 -0.223024 0)
(-0.355944 1.18971 0)
(-0.399402 0.940053 0)
(-0.425527 0.398558 0)
(-0.370648 0.280241 0)
(-0.424471 0.512987 0)
(-0.211183 0.210739 0)
(-0.366911 -0.0486555 0)
(-0.422636 -0.0220761 0)
(-0.254253 -0.0613052 0)
(-0.230791 -0.232892 0)
(-0.249887 0.00813729 0)
(0.129886 -0.322151 0)
(-0.0716438 -0.0908067 0)
(0.402383 -0.385732 0)
(0.384623 -0.427473 0)
(0.450395 -0.281138 0)
(0.391318 -0.154944 0)
(0.344952 -0.248064 0)
(0.181375 -0.190187 0)
(-0.486 1.28506 0)
(-0.627481 0.771659 0)
(-0.515061 0.353909 0)
(-0.176016 0.340046 0)
(-0.16944 0.41762 0)
(-0.0193173 0.326204 0)
(-0.202177 0.0170546 0)
(-0.306687 -0.0103219 0)
(-0.211025 -0.165354 0)
(-0.134187 -0.140826 0)
(-0.164007 -0.196992 0)
(0.094326 -0.352399 0)
(0.317094 -0.25546 0)
(0.467637 -0.441175 0)
(0.451534 -0.372006 0)
(0.505265 -0.240747 0)
(0.418561 -0.118831 0)
(0.380494 -0.156038 0)
(0.199527 -0.114023 0)
(-0.29793 0.498017 0)
(0.272095 0.127416 0)
(-0.292288 0.154429 0)
(-0.0767329 0.187394 0)
(-0.148595 0.198896 0)
(-0.0270198 0.0693504 0)
(-0.195181 -0.0148812 0)
(-0.213559 -0.075235 0)
(-0.349991 -0.0411586 0)
(-0.376279 -0.125421 0)
(-0.332421 -0.0145627 0)
(-0.33554 -0.14745 0)
(-0.0250504 0.102839 0)
(-0.163784 -0.363388 0)
(-0.232853 -0.141483 0)
(-0.144247 -0.137448 0)
(-0.111564 -0.126749 0)
(-0.0798887 -0.113272 0)
(-0.100441 -0.0705581 0)
(0.00517664 -0.138761 0)
(0.146794 -0.122815 0)
(-0.0808169 0.313827 0)
(-0.281104 0.318978 0)
(-0.0300293 0.47766 0)
(0.176571 0.195339 0)
(-0.125754 0.213697 0)
(-0.0312778 0.160316 0)
(-0.0723709 0.213139 0)
(0.000291837 0.149589 0)
(-0.0634931 0.0106562 0)
(-0.110833 0.0747107 0)
(-0.246661 -0.0162564 0)
(-0.362589 0.0132052 0)
(-0.255534 -0.197233 0)
(-0.245288 -0.13918 0)
(-0.402749 -0.191502 0)
(-0.404535 -0.251112 0)
(-0.319107 -0.206221 0)
(-0.352238 -0.226463 0)
(-0.378325 -0.213035 0)
(-0.371401 -0.181378 0)
(-0.418353 -0.127494 0)
(-0.478416 -0.147293 0)
(-0.580881 0.122954 0)
(-0.801441 0.243653 0)
(-0.823085 0.352477 0)
(-0.0366523 0.449301 0)
(-0.115014 0.211347 0)
(-0.0525135 0.257884 0)
(0.0529316 0.169896 0)
(0.0241912 0.146217 0)
(-0.0556653 0.00535083 0)
(-0.033426 0.0343931 0)
(-0.0576168 0.111481 0)
(-0.0237024 0.0983074 0)
(-0.196436 0.112338 0)
(-0.245984 -0.130548 0)
(-0.172137 -0.0704747 0)
(-0.367879 -0.0131345 0)
(-0.415835 0.0496437 0)
(-0.539338 -0.0523714 0)
(-0.549595 -0.0761961 0)
(-0.532015 -0.099272 0)
(-0.610882 0.0666593 0)
(-0.816391 -0.00242149 0)
(-0.854524 -0.065803 0)
(-0.805838 0.132485 0)
(-0.860711 0.236703 0)
(-0.829942 0.397641 0)
(-0.037499 0.504045 0)
(-0.100397 0.227181 0)
(-0.0761895 0.278356 0)
(-0.0983447 0.104179 0)
(-0.00512043 0.176327 0)
(-0.119284 0.101213 0)
(-0.171333 0.0227599 0)
(-0.197263 -0.0139532 0)
(-0.0884499 0.0493842 0)
(0.0210041 0.15019 0)
(-0.210515 0.0119995 0)
(-0.284733 0.013994 0)
(-0.466333 0.0526575 0)
(-0.513577 0.0812113 0)
(-0.602511 0.00603259 0)
(-0.617736 -0.127191 0)
(-0.543461 -0.145234 0)
(-0.781355 0.0306513 0)
(-1.09013 0.121694 0)
(-0.84031 0.0342196 0)
(-0.690046 0.0835619 0)
(-0.680918 0.177209 0)
(-0.750652 0.227882 0)
(-0.0509342 0.586135 0)
(0.00580343 0.261836 0)
(0.0516729 0.296963 0)
(-0.0363541 0.149781 0)
(-0.0714753 0.168215 0)
(-0.1077 0.219163 0)
(-0.157794 0.0596446 0)
(-0.35333 -0.101397 0)
(-0.403898 0.0749244 0)
(-0.201696 0.164468 0)
(-0.447689 0.222713 0)
(-0.467334 0.146447 0)
(-0.452907 0.207581 0)
(-0.418963 0.144586 0)
(-0.751406 -0.0759754 0)
(-0.849851 -0.19118 0)
(-0.556285 -0.0822256 0)
(-0.473056 -0.107116 0)
(-0.899617 0.126128 0)
(-0.9917 0.253393 0)
(-0.689762 0.125407 0)
(-0.627254 -0.0163206 0)
(-0.672327 -0.0536937 0)
(-0.00498515 0.573585 0)
(0.0514227 0.387946 0)
(0.0304134 0.379226 0)
(-0.0261744 0.133708 0)
(-0.105356 0.256214 0)
(-0.177433 0.472021 0)
(0.0396463 0.215591 0)
(-0.187443 -0.0310929 0)
(-0.389194 0.306494 0)
(-0.325404 0.388426 0)
(-0.496859 0.349119 0)
(-0.42879 0.210245 0)
(-0.323238 0.320463 0)
(-0.514804 0.188484 0)
(-0.677228 -0.152828 0)
(-0.586964 -0.0372398 0)
(-0.486135 0.126544 0)
(-0.604227 0.124504 0)
(-0.680628 0.0621031 0)
(-0.780355 0.249199 0)
(-0.784862 0.27836 0)
(-0.819924 0.19232 0)
(-0.930484 0.246796 0)
(0.0569324 0.510755 0)
(0.0867557 0.327543 0)
(-0.0835062 0.386171 0)
(0.0016238 0.272381 0)
(0.064556 0.469257 0)
(-0.0973186 0.349215 0)
(-0.0999747 0.166632 0)
(-0.25395 0.134527 0)
(-0.307232 0.312462 0)
(-0.186647 0.278327 0)
(-0.390106 0.397919 0)
(-0.552886 0.452881 0)
(-0.423289 0.370658 0)
(-0.549041 0.20699 0)
(-0.549415 -0.0277683 0)
(-0.595575 0.0701611 0)
(-0.574482 0.0780205 0)
(-0.634709 0.175971 0)
(-0.692808 0.181973 0)
(-0.795834 0.281638 0)
(-0.872597 0.290789 0)
(-0.869058 0.452237 0)
(-1.1301 0.591325 0)
(0.0373229 0.396779 0)
(0.0899826 0.220909 0)
(0.00677073 0.448347 0)
(0.0232585 0.310805 0)
(0.0571295 0.485563 0)
(-0.0385998 0.344882 0)
(-0.158183 0.195698 0)
(-0.200326 0.240999 0)
(-0.354514 0.515739 0)
(-0.338477 0.302057 0)
(-0.21992 0.534996 0)
(-0.277685 0.904903 0)
(-0.303008 0.330204 0)
(-0.517244 0.235117 0)
(-0.499189 -0.0569332 0)
(-0.587927 0.0416779 0)
(-0.712407 0.140271 0)
(-0.766489 0.165923 0)
(-0.82562 0.170884 0)
(-0.891956 0.265612 0)
(-0.942405 0.402543 0)
(-1.24607 0.593941 0)
(-1.39641 0.626614 0)
(0.0633791 0.418283 0)
(0.172399 0.348072 0)
(0.170464 0.431774 0)
(0.0534257 0.28292 0)
(0.022081 0.386374 0)
(-0.120349 0.402524 0)
(-0.188921 0.364451 0)
(-0.0964948 0.461978 0)
(-0.101059 0.430208 0)
(-0.164276 0.189445 0)
(-0.0840952 0.175936 0)
(-0.151642 0.673532 0)
(-0.250142 0.294872 0)
(-0.510456 0.2809 0)
(-0.48798 0.166473 0)
(-0.661775 0.208967 0)
(-0.809723 0.248115 0)
(-0.937761 0.286295 0)
(-1.03776 0.365971 0)
(-1.09756 0.384666 0)
(-1.19558 0.447338 0)
(-1.29463 0.527564 0)
(-1.4605 0.632162 0)
(0.0433824 0.577356 0)
(0.0142337 0.501961 0)
(0.0791439 0.350511 0)
(0.00471982 0.342045 0)
(-0.0550288 0.401165 0)
(-0.142767 0.416037 0)
(0.0540767 0.29438 0)
(0.0162471 0.170466 0)
(0.227039 0.168161 0)
(0.0483998 0.32525 0)
(-0.403304 0.160891 0)
(-0.346165 0.44226 0)
(-0.235618 0.52922 0)
(-0.533065 0.512064 0)
(-0.633454 0.391707 0)
(-0.838232 0.409792 0)
(-0.848435 0.375335 0)
(-0.907264 0.429593 0)
(-1.19979 0.546847 0)
(-1.30701 0.45538 0)
(-1.18913 0.508736 0)
(-1.12508 0.550062 0)
(-1.16565 0.619698 0)
(0.0784782 0.438561 0)
(-0.0372503 0.372404 0)
(-0.163512 0.310558 0)
(-0.00882261 0.551697 0)
(-0.185751 0.333547 0)
(-0.242583 0.401425 0)
(-0.344095 0.499276 0)
(-0.332724 0.537062 0)
(-0.248147 0.568388 0)
(-0.389611 0.623653 0)
(-0.814678 0.484836 0)
(-0.677897 0.733514 0)
(-0.64701 0.682755 0)
(-0.890666 0.523409 0)
(-1.07084 0.53389 0)
(-1.16854 0.566161 0)
(-1.05202 0.651709 0)
(-0.998986 0.522906 0)
(-1.32231 0.537129 0)
(-1.38217 0.589821 0)
(-1.13338 0.727172 0)
(-1.09039 0.742642 0)
(-1.18456 0.538401 0)
(0.0206068 0.432921 0)
(-0.128609 0.442487 0)
(-0.265599 0.725951 0)
(-0.719939 0.662619 0)
(-0.992898 0.552892 0)
(-1.01333 0.386966 0)
(-0.982196 0.320905 0)
(-0.8429 0.354883 0)
(-0.913005 0.194346 0)
(-1.20254 0.2153 0)
(-1.30368 0.480824 0)
(-1.08264 0.61621 0)
(-1.0801 0.610863 0)
(-1.09562 0.636455 0)
(-1.18857 0.537135 0)
(-1.16254 0.625665 0)
(-1.08923 0.659938 0)
(-1.10259 0.542994 0)
(-1.27372 0.643054 0)
(-1.28221 0.744204 0)
(-1.1809 0.738314 0)
(-1.15994 0.622595 0)
(-1.32993 0.518804 0)
(-0.0112828 0.507514 0)
(-0.125184 0.665187 0)
(-0.747866 1.03225 0)
(-1.0353 0.732598 0)
(-1.13024 0.538141 0)
(-1.07177 0.366968 0)
(-1.02478 0.335275 0)
(-1.45398 0.333619 0)
(-1.64769 0.317571 0)
(-1.4525 0.439587 0)
(-1.45314 0.630807 0)
(-1.4663 0.657301 0)
(-1.39146 0.710882 0)
(-1.52398 0.807429 0)
(-1.49233 0.774058 0)
(-1.31549 0.902011 0)
(-1.41311 0.729639 0)
(-1.42083 0.679352 0)
(-1.36149 0.742461 0)
(-1.38512 0.741503 0)
(-1.26872 0.608533 0)
(-1.14132 0.309064 0)
(-1.04887 0.107795 0)
(0.00310258 0.726234 0)
(-0.409587 1.03291 0)
(-0.841354 1.32674 0)
(-1.14074 0.965764 0)
(-1.02324 0.594886 0)
(-1.02654 0.423919 0)
(-1.28885 0.310602 0)
(-1.53801 0.295575 0)
(-1.59809 0.472576 0)
(-1.57189 0.575972 0)
(-1.66688 0.565872 0)
(-1.68191 0.596992 0)
(-1.64306 0.613715 0)
(-1.70426 0.782039 0)
(-1.67866 0.852692 0)
(-1.76072 0.870149 0)
(-1.85495 0.79023 0)
(-1.46107 0.783423 0)
(-1.34307 0.696619 0)
(-1.36716 0.613463 0)
(-1.12393 0.479308 0)
(-0.827691 0.117992 0)
(-0.707114 -0.0755543 0)
(-0.0536818 1.17178 0)
(-0.246829 1.35308 0)
(-0.6312 1.48603 0)
(-0.961185 1.11947 0)
(-1.07191 0.914256 0)
(-1.20376 0.554163 0)
(-1.49688 0.504848 0)
(-1.54999 0.438641 0)
(-1.53246 0.555782 0)
(-1.73307 0.627825 0)
(-1.91622 0.696743 0)
(-1.97917 0.620261 0)
(-1.87688 0.54448 0)
(-1.812 0.584827 0)
(-1.82236 0.600824 0)
(-1.82344 0.569427 0)
(-1.70471 0.705897 0)
(-1.34729 0.596907 0)
(-1.2295 0.335571 0)
(-1.0229 0.296096 0)
(-0.857332 0.192422 0)
(-0.628603 -0.033179 0)
(-0.556985 -0.160753 0)
(-0.0226647 1.47222 0)
(-0.276801 1.52772 0)
(-0.50665 1.55693 0)
(-0.752027 1.2487 0)
(-0.978368 1.02443 0)
(-1.21474 0.704794 0)
(-1.38128 0.641938 0)
(-1.34263 0.555767 0)
(-1.32871 0.540965 0)
(-1.51607 0.583055 0)
(-1.90287 0.689316 0)
(-2.12929 0.697787 0)
(-1.74852 0.654289 0)
(-1.50123 0.49293 0)
(-1.44745 0.341814 0)
(-1.26732 0.322188 0)
(-1.16659 0.391115 0)
(-0.99268 0.38375 0)
(-0.931813 0.290925 0)
(-0.764681 0.185474 0)
(-0.660136 0.0433081 0)
(-0.168434 -0.197151 0)
(-0.150573 -0.259363 0)
(-0.138692 1.7683 0)
(-0.143605 1.78201 0)
(-0.177084 1.71611 0)
(-0.293093 1.4844 0)
(-0.619352 1.22946 0)
(-1.029 0.869259 0)
(-1.36313 0.772065 0)
(-1.40739 0.821294 0)
(-1.29 0.720989 0)
(-1.34095 0.673109 0)
(-1.74177 0.603865 0)
(-1.83651 0.690968 0)
(-1.36812 0.747694 0)
(-1.17564 0.389818 0)
(-1.14882 0.32844 0)
(-1.1528 0.318433 0)
(-1.17577 0.383047 0)
(-1.22775 0.305112 0)
(-1.31018 0.279224 0)
(-0.718606 0.243411 0)
(-0.375134 -0.40002 0)
(-0.122658 -0.49555 0)
(-0.156289 -0.586202 0)
(-0.0808327 2.06994 0)
(-0.0958617 1.81188 0)
(0.0148688 1.73027 0)
(-0.043843 1.54571 0)
(-0.421188 1.40172 0)
(-1.00489 1.05932 0)
(-1.11147 0.942922 0)
(-1.15812 1.07178 0)
(-1.15118 1.01374 0)
(-1.32907 0.731198 0)
(-1.42294 0.610142 0)
(-1.33965 0.645013 0)
(-1.24989 0.640776 0)
(-1.24426 0.359158 0)
(-1.18665 0.358769 0)
(-1.39007 0.40957 0)
(-1.5508 0.368578 0)
(-1.34225 -0.0889478 0)
(-0.914948 -0.0509054 0)
(-0.641408 -0.669394 0)
(-0.507363 -0.818463 0)
(-0.340414 -0.850157 0)
(-0.291028 -0.964461 0)
(-0.287854 2.27755 0)
(-0.0458519 1.93342 0)
(0.0587537 1.85109 0)
(-0.0230873 1.65813 0)
(-0.407334 1.67735 0)
(-1.00369 1.40051 0)
(-1.00109 1.28938 0)
(-0.910975 1.25979 0)
(-1.02696 1.0591 0)
(-1.16182 0.874214 0)
(-1.23448 0.769226 0)
(-1.19526 0.633403 0)
(-1.22127 0.294378 0)
(-1.13985 0.294651 0)
(-1.25715 0.495872 0)
(-1.27902 0.489637 0)
(-1.28231 0.251481 0)
(-1.21213 0.0802638 0)
(-0.885318 -0.578347 0)
(-0.60955 -0.841939 0)
(-0.293384 -0.834095 0)
(-0.2936 -0.958794 0)
(-0.0439238 -0.74677 0)
(-0.27013 2.73358 0)
(-0.113346 2.34794 0)
(-0.0996128 1.89936 0)
(-0.133561 1.79717 0)
(-0.488286 1.77402 0)
(-0.880818 1.55035 0)
(-0.857894 1.54309 0)
(-0.866281 1.2601 0)
(-1.02025 1.15691 0)
(-1.03796 0.88391 0)
(-1.15244 0.682002 0)
(-1.09474 0.369906 0)
(-1.21912 0.244111 0)
(-1.06868 0.348166 0)
(-1.06288 0.486001 0)
(-0.898153 0.441112 0)
(-0.674461 0.0778002 0)
(-0.486142 -0.272441 0)
(-0.254141 -0.5988 0)
(-0.355736 -0.683645 0)
(-0.21647 -0.710188 0)
(-0.0776421 -0.688592 0)
(0.0360609 -0.539724 0)
(-0.143934 3.02999 0)
(-0.265108 2.3061 0)
(-0.293756 1.93692 0)
(-0.329949 1.87054 0)
(-0.547876 1.84877 0)
(-0.781973 1.64825 0)
(-0.830861 1.51941 0)
(-0.858028 1.30807 0)
(-0.974556 1.23887 0)
(-1.00738 0.971197 0)
(-0.945801 0.714823 0)
(-0.739177 0.392839 0)
(-0.964559 0.27085 0)
(-0.904815 0.349732 0)
(-0.835586 0.359424 0)
(-0.502625 0.163069 0)
(-0.382569 -0.0954436 0)
(-0.179394 -0.331036 0)
(0.0485346 -0.863324 0)
(-0.128722 -0.823298 0)
(-0.0916266 -0.724772 0)
(-0.112996 -0.49262 0)
(-0.0544954 -0.466272 0)
(-0.366423 3.43858 0)
(-0.386732 2.45956 0)
(-0.467518 1.98114 0)
(-0.489128 2.0501 0)
(-0.58559 2.04467 0)
(-0.812459 1.78011 0)
(-0.834749 1.6147 0)
(-0.917378 1.48798 0)
(-0.962193 1.46098 0)
(-0.741588 1.14052 0)
(-0.688913 1.0126 0)
(-0.836351 0.457224 0)
(-0.933543 0.415581 0)
(-0.591632 0.24919 0)
(-0.630059 0.122522 0)
(-0.155278 -0.0512303 0)
(0.100321 -0.57466 0)
(0.204255 -0.518382 0)
(0.145047 -0.627365 0)
(0.0165915 -0.659497 0)
(0.0811056 -0.703016 0)
(0.101988 -0.714381 0)
(0.157529 -0.791952 0)
(-0.0409366 3.73866 0)
(-0.52694 2.61237 0)
(-0.654099 2.41822 0)
(-0.352129 2.33381 0)
(-0.644903 2.16388 0)
(-0.940836 2.09007 0)
(-0.965732 2.15622 0)
(-0.908327 1.9829 0)
(-0.695837 2.00287 0)
(-0.506032 1.6033 0)
(-0.843811 0.923421 0)
(-0.835597 0.444692 0)
(-0.804845 0.487016 0)
(-0.394348 -0.225322 0)
(-0.280923 -0.493376 0)
(-0.0600496 -0.451053 0)
(0.335898 -0.615902 0)
(0.389276 -0.548635 0)
(0.287101 -0.715925 0)
(0.165035 -0.680968 0)
(0.207467 -0.736237 0)
(0.0575564 -0.891541 0)
(0.125892 -0.874074 0)
(0.0973027 3.77398 0)
(-0.354191 2.50524 0)
(-0.556852 2.60572 0)
(-0.538964 2.48552 0)
(-0.708391 2.31876 0)
(-0.685323 2.31493 0)
(-0.598076 2.54044 0)
(-0.871812 2.28073 0)
(-0.571344 1.94552 0)
(-0.560321 1.50078 0)
(-0.918771 0.954589 0)
(-0.634045 0.43626 0)
(-0.671087 0.166609 0)
(-0.267713 -0.402147 0)
(-0.0577728 -0.625327 0)
(0.279732 -0.703653 0)
(0.515295 -0.743181 0)
(0.440552 -0.811652 0)
(0.364999 -0.959208 0)
(0.397231 -0.897284 0)
(0.102873 -0.86021 0)
(0.114801 -0.8936 0)
(0.253764 -0.72108 0)
(0.0311637 3.80606 0)
(-0.288248 2.46722 0)
(-0.460925 2.42353 0)
(-0.453347 2.49354 0)
(-0.547347 2.5284 0)
(-0.3338 2.85089 0)
(-0.590886 2.45687 0)
(-0.865355 2.07487 0)
(-0.478681 1.5553 0)
(-0.356901 1.16541 0)
(-0.708354 0.999401 0)
(-0.0548305 0.52321 0)
(-0.163488 -0.0578626 0)
(0.259974 -0.501877 0)
(0.22631 -0.561033 0)
(0.317661 -0.707226 0)
(0.437535 -0.748645 0)
(0.445847 -0.850892 0)
(0.462282 -0.980957 0)
(0.413259 -1.00031 0)
(0.352887 -0.96137 0)
(0.303574 -0.678502 0)
(0.212384 -0.650699 0)
(-0.0543841 3.89443 0)
(-0.295369 2.5491 0)
(-0.309788 2.34725 0)
(-0.211989 2.42843 0)
(-0.150515 2.42514 0)
(-0.263528 2.74339 0)
(-0.711547 2.23962 0)
(-0.849177 1.68568 0)
(-0.31942 1.37026 0)
(0.074568 0.562687 0)
(-0.0724735 0.674367 0)
(0.385187 0.316102 0)
(0.590463 -0.187209 0)
(0.561902 -0.721808 0)
(0.394641 -0.766386 0)
(0.538991 -0.756788 0)
(0.564495 -0.678819 0)
(0.417139 -0.704212 0)
(0.41555 -0.69816 0)
(0.517732 -0.801898 0)
(0.450507 -0.761932 0)
(0.359137 -0.616343 0)
(0.293684 -0.612562 0)
(-0.141507 3.76274 0)
(-0.410455 2.59409 0)
(-0.314775 2.37628 0)
(-0.120581 2.50866 0)
(-0.0321305 2.37067 0)
(-0.116601 2.38553 0)
(-0.600372 2.20715 0)
(-0.515963 1.38252 0)
(-0.457584 0.825353 0)
(0.0715353 0.497839 0)
(0.397778 0.532293 0)
(0.673093 0.0586243 0)
(0.784036 -0.400069 0)
(0.664612 -0.844494 0)
(0.723924 -0.756077 0)
(0.673408 -0.649444 0)
(0.621751 -0.751478 0)
(0.417835 -0.788222 0)
(0.326489 -0.600034 0)
(0.355039 -0.651694 0)
(0.542194 -0.756538 0)
(0.452339 -0.684577 0)
(0.225288 -0.579668 0)
(-0.204475 3.36056 0)
(-0.433901 2.52027 0)
(-0.254717 2.39091 0)
(-0.128142 2.50234 0)
(-0.157588 2.29527 0)
(0.0630799 2.14452 0)
(-0.291539 2.13819 0)
(0.124428 0.839893 0)
(0.139492 0.332361 0)
(0.468716 0.110648 0)
(0.571068 0.0537918 0)
(0.697889 -0.184696 0)
(0.741086 -0.57259 0)
(0.785867 -0.605065 0)
(0.831071 -0.700223 0)
(0.69441 -0.739567 0)
(0.452724 -0.92371 0)
(0.548148 -0.793687 0)
(0.489605 -0.710052 0)
(0.263205 -0.660706 0)
(0.429836 -0.614116 0)
(0.517653 -0.64007 0)
(0.33602 -0.65964 0)
(-0.161836 3.36233 0)
(-0.365339 2.55386 0)
(-0.244141 2.36271 0)
(-0.252271 2.27778 0)
(-0.251692 2.08482 0)
(0.0458138 2.04998 0)
(0.0268939 1.97357 0)
(0.402798 0.794834 0)
(0.369957 0.227971 0)
(0.49027 0.043745 0)
(0.523403 -0.294225 0)
(0.648445 -0.31201 0)
(0.797608 -0.432944 0)
(0.811447 -0.476992 0)
(0.727958 -0.495979 0)
(0.542616 -0.750237 0)
(0.604496 -0.635932 0)
(0.569592 -0.618602 0)
(0.364127 -0.739202 0)
(0.41031 -0.610504 0)
(0.526588 -0.489681 0)
(0.366772 -0.545005 0)
(0.142503 -0.795284 0)
(-0.173017 3.46026 0)
(-0.403585 2.61772 0)
(-0.333385 2.36076 0)
(-0.446821 2.24568 0)
(-0.285188 2.01064 0)
(-0.0687234 1.86984 0)
(0.168811 1.74588 0)
(0.518173 0.715516 0)
(0.630838 0.17524 0)
(0.645451 -0.12278 0)
(0.754103 -0.406079 0)
(0.865068 -0.37185 0)
(0.842732 -0.388106 0)
(0.812706 -0.440474 0)
(0.66408 -0.4229 0)
(0.509572 -0.488083 0)
(0.55726 -0.456036 0)
(0.450099 -0.616359 0)
(0.443156 -0.534371 0)
(0.485866 -0.469977 0)
(0.435395 -0.557454 0)
(0.223114 -0.6286 0)
(0.31816 -0.538521 0)
(-0.238483 3.56853 0)
(-0.442177 2.72707 0)
(-0.40127 2.40834 0)
(-0.583487 2.2993 0)
(-0.36969 1.97684 0)
(-0.159401 1.51276 0)
(0.236372 1.31457 0)
(0.649332 0.417139 0)
(0.779438 0.141883 0)
(0.693693 0.0419545 0)
(0.772339 -0.163754 0)
(1.04548 -0.326516 0)
(0.888709 -0.436701 0)
(0.83658 -0.415141 0)
(0.730949 -0.412165 0)
(0.471183 -0.446696 0)
(0.433288 -0.436857 0)
(0.443212 -0.426567 0)
(0.457301 -0.382296 0)
(0.362514 -0.488329 0)
(0.426758 -0.493383 0)
(0.405486 -0.430914 0)
(0.307316 -0.386959 0)
(-0.16636 3.67658 0)
(-0.333292 2.8672 0)
(-0.370042 2.48959 0)
(-0.587591 2.31055 0)
(-0.372004 1.97515 0)
(-0.0772957 1.19718 0)
(0.262377 0.930461 0)
(0.887105 0.407785 0)
(1.318 -0.00767919 0)
(1.14532 -0.136554 0)
(0.76362 -0.155827 0)
(0.810927 -0.219539 0)
(0.816079 -0.420877 0)
(0.82906 -0.415991 0)
(0.662216 -0.390936 0)
(0.50658 -0.401282 0)
(0.562901 -0.394005 0)
(0.517221 -0.320331 0)
(0.410593 -0.343938 0)
(0.419201 -0.369558 0)
(0.471302 -0.337114 0)
(0.347861 -0.423295 0)
(0.232465 -0.38792 0)
(0.184862 3.94185 0)
(0.0495316 3.09236 0)
(-0.177694 2.3884 0)
(-0.371276 1.98138 0)
(-0.104115 1.62976 0)
(0.20719 0.845422 0)
(0.639483 0.547793 0)
(0.871471 0.318696 0)
(0.99103 0.0719853 0)
(0.854639 -0.23798 0)
(0.83407 -0.196118 0)
(0.75971 -0.237356 0)
(0.764718 -0.243979 0)
(0.966249 -0.426529 0)
(0.873262 -0.398513 0)
(0.519719 -0.235068 0)
(0.502553 -0.286757 0)
(0.484758 -0.265133 0)
(0.420611 -0.34297 0)
(0.366699 -0.290937 0)
(0.325938 -0.320698 0)
(0.308854 -0.494774 0)
(0.283763 -0.400518 0)
(0.295323 3.89953 0)
(0.348895 3.40474 0)
(0.444119 2.50324 0)
(0.322426 1.99309 0)
(0.541755 1.33026 0)
(0.763119 0.47792 0)
(1.03533 0.175125 0)
(1.04325 0.193249 0)
(1.05868 0.0798095 0)
(0.94928 0.035681 0)
(0.842473 -0.0861114 0)
(0.808187 -0.0159055 0)
(0.666983 -0.0381467 0)
(0.734516 -0.0953777 0)
(0.79051 -0.342684 0)
(0.555155 -0.387923 0)
(0.471477 -0.380041 0)
(0.365858 -0.279877 0)
(0.353861 -0.367426 0)
(0.42679 -0.286164 0)
(0.285346 -0.30503 0)
(0.22279 -0.307871 0)
(0.242625 -0.321014 0)
(0.309906 3.38038 0)
(0.692893 3.26217 0)
(0.939772 2.62808 0)
(0.948009 1.96477 0)
(0.900202 1.1755 0)
(1.14887 0.522385 0)
(1.65414 0.0892104 0)
(1.40063 0.214162 0)
(0.902074 -0.0111324 0)
(0.861061 0.013001 0)
(0.957987 0.0963234 0)
(0.922764 -0.0205525 0)
(0.634842 -0.0569023 0)
(0.678261 -0.0499742 0)
(0.641775 -0.142737 0)
(0.441902 -0.270878 0)
(0.599602 -0.346523 0)
(0.517645 -0.317113 0)
(0.376379 -0.218867 0)
(0.460597 -0.197009 0)
(0.317258 -0.287693 0)
(0.262926 -0.283385 0)
(0.253218 -0.292826 0)
(0.17434 2.04817 0)
(1.16802 2.94563 0)
(1.27586 2.62902 0)
(1.29715 1.9914 0)
(1.3404 1.14291 0)
(1.25428 0.687138 0)
(1.41697 0.402477 0)
(1.2914 0.0649783 0)
(0.903615 0.0694201 0)
(1.06753 0.159087 0)
(0.927353 0.224423 0)
(0.660476 -0.0538418 0)
(0.624668 -0.0373187 0)
(0.578922 -0.0425923 0)
(0.56538 -0.117631 0)
(0.482408 -0.109628 0)
(0.503718 -0.120732 0)
(0.527023 -0.297341 0)
(0.482649 -0.16077 0)
(0.447688 -0.194038 0)
(0.200183 -0.298777 0)
(0.233595 -0.29986 0)
(0.239033 -0.320842 0)
(-0.0433739 1.34533 0)
(1.06368 2.57429 0)
(1.20103 2.41889 0)
(1.27887 1.87161 0)
(1.37739 1.13591 0)
(1.35022 0.783192 0)
(1.37164 0.643381 0)
(1.11249 0.374116 0)
(1.01077 0.372573 0)
(1.00562 0.188675 0)
(0.84696 0.105211 0)
(0.66906 0.075139 0)
(0.651111 0.109491 0)
(0.623232 0.021138 0)
(0.535107 -0.00662246 0)
(0.444083 0.0162713 0)
(0.396644 -0.0698169 0)
(0.444704 -0.156456 0)
(0.522584 -0.0811055 0)
(0.329366 -0.285013 0)
(0.197619 -0.312999 0)
(0.242559 -0.255627 0)
(0.230346 -0.309096 0)
(-0.179419 1.20025 0)
(0.468366 1.65857 0)
(0.741631 1.89574 0)
(1.06497 1.78792 0)
(1.08238 1.39107 0)
(1.13019 1.0989 0)
(0.965324 0.880714 0)
(0.865092 0.624467 0)
(0.806175 0.527738 0)
(0.795997 0.242114 0)
(0.831631 0.176121 0)
(0.705177 0.193752 0)
(0.530727 0.00943054 0)
(0.467827 0.0747309 0)
(0.575897 0.0805342 0)
(0.330178 -0.024321 0)
(0.344851 -0.00804444 0)
(0.558164 -0.11042 0)
(0.452321 -0.0919023 0)
(0.212609 -0.258371 0)
(0.19162 -0.223026 0)
(0.227814 -0.283713 0)
(0.183403 -0.279464 0)
(-0.245801 1.28344 0)
(0.132663 1.5948 0)
(0.673644 1.70419 0)
(0.957497 1.56114 0)
(0.707994 1.22716 0)
(0.840528 1.01452 0)
(0.806741 0.90532 0)
(0.696972 0.644319 0)
(0.637347 0.550915 0)
(0.652867 0.541263 0)
(0.68732 0.416474 0)
(0.455328 0.290328 0)
(0.538255 0.0797052 0)
(0.604361 0.214625 0)
(0.461306 0.107846 0)
(0.252148 -0.061575 0)
(0.268376 -0.00547799 0)
(0.360635 -0.017838 0)
(0.337281 -0.220081 0)
(0.198674 -0.22214 0)
(0.209005 -0.138628 0)
(0.258264 -0.177037 0)
(0.144719 -0.201573 0)
(-0.124322 1.36599 0)
(0.152566 1.70371 0)
(0.48083 1.68805 0)
(0.626531 1.44557 0)
(0.537252 1.09084 0)
(0.654112 1.05307 0)
(0.569637 1.05244 0)
(0.575101 0.927256 0)
(0.641999 0.624099 0)
(0.605251 0.638115 0)
(0.575903 0.412335 0)
(0.323866 0.384396 0)
(0.45199 0.395205 0)
(0.525352 0.221016 0)
(0.335607 0.0849727 0)
(0.27594 0.0276232 0)
(0.327333 0.0326955 0)
(0.344619 0.0154481 0)
(0.177007 -0.150127 0)
(0.248081 -0.176848 0)
(0.17936 -0.105587 0)
(0.16951 -0.105403 0)
(0.153472 -0.222599 0)
(-0.0347896 1.27443 0)
(0.14983 1.62872 0)
(0.272928 1.36015 0)
(0.35489 1.24706 0)
(0.492774 1.21682 0)
(0.660184 1.07012 0)
(0.591256 0.981153 0)
(0.374863 0.891708 0)
(0.461483 0.649725 0)
(0.500616 0.566497 0)
(0.355944 0.328307 0)
(0.353063 0.397071 0)
(0.380179 0.367832 0)