/*--------------------------------*- C++ -*----------------------------------*\
| =========                 |                                                 |
| \\      /  F ield         | foam-extend: Open Source CFD                    |
|  \\    /   O peration     | Version:     4.1                                |
|   \\  /    A nd           | Web:         http://www.foam-extend.org         |
|    \\/     M anipulation  |                                                 |
\*---------------------------------------------------------------------------*/
FoamFile
{
    version     2.0;
    format      ascii;
    class       volVectorField;
    location    "0.25";
    object      U_0;
}
// * * * * * * * * * * * * * * * * * * * * * * * * * * * * * * * * * * * * * //

dimensions      [0 1 -1 0 0 0 0];

internalField   nonuniform List<vector> 
2268
(
(0.0455028 -0.00695217 0)
(0.0697598 -0.00669523 0)
(0.158217 -0.00835672 0)
(0.20772 -0.00412896 0)
(0.244359 -0.00963504 0)
(0.340965 -0.00646906 0)
(0.374426 -0.00599153 0)
(0.468687 -0.00941839 0)
(0.479313 -0.00279283 0)
(0.53008 -0.0233459 0)
(0.462289 -0.0473519 0)
(0.416987 -0.00136163 0)
(0.475521 -0.00151584 0)
(0.488962 -0.00387786 0)
(0.518005 -0.00221952 0)
(0.525849 0.00219974 0)
(0.542246 0.00434802 0)
(0.534752 0.000875288 0)
(0.511365 0.0119254 0)
(0.456195 0.00536658 0)
(0.385339 0.0338012 0)
(0.258436 0.016352 0)
(0.13183 0.0561756 0)
(0.0454947 -0.0202434 0)
(0.0706534 -0.0199139 0)
(0.16014 -0.0248628 0)
(0.206755 -0.0153852 0)
(0.246437 -0.023061 0)
(0.345433 -0.0235288 0)
(0.378242 -0.0247129 0)
(0.471154 -0.0175089 0)
(0.4756 -0.0106243 0)
(0.540811 0.0220812 0)
(0.457866 -0.114863 0)
(0.419924 -0.0340245 0)
(0.465123 -0.0222243 0)
(0.480713 -0.0272668 0)
(0.505075 -0.0143441 0)
(0.512401 -0.00476651 0)
(0.52592 0.0171004 0)
(0.521591 0.0151508 0)
(0.497044 0.0107782 0)
(0.460147 0.0480428 0)
(0.366332 0.0613471 0)
(0.260229 0.104731 0)
(0.0930286 0.132794 0)
(0.0445497 -0.0344053 0)
(0.0710196 -0.0338095 0)
(0.160669 -0.0410108 0)
(0.203619 -0.023488 0)
(0.251167 -0.0438245 0)
(0.347406 -0.0360797 0)
(0.378261 -0.0374359 0)
(0.457846 -0.0344077 0)
(0.513379 -0.0170993 0)
(0.493564 -0.0559457 0)
(0.433465 -0.140388 0)
(0.413768 -0.0566954 0)
(0.45242 -0.0339518 0)
(0.4619 -0.0334769 0)
(0.472764 -0.0183313 0)
(0.479865 -0.00728331 0)
(0.490791 0.0167879 0)
(0.484284 0.0396419 0)
(0.469188 0.0438293 0)
(0.445692 0.0661942 0)
(0.376869 0.117167 0)
(0.261334 0.148938 0)
(0.158205 0.213728 0)
(0.043364 -0.047437 0)
(0.0722295 -0.0473477 0)
(0.161497 -0.0567277 0)
(0.200969 -0.0361214 0)
(0.270914 -0.0580697 0)
(0.338814 -0.0532128 0)
(0.371396 -0.0512183 0)
(0.481526 -0.0558987 0)
(0.430569 -0.0515516 0)
(0.399806 -0.123155 0)
(0.399333 -0.108973 0)
(0.375539 -0.0489992 0)
(0.393103 -0.0362021 0)
(0.403061 -0.0359181 0)
(0.427113 -0.0238158 0)
(0.435794 -0.00881033 0)
(0.449988 0.00327945 0)
(0.449249 0.0382214 0)
(0.44509 0.0751572 0)
(0.415494 0.0938491 0)
(0.350461 0.149402 0)
(0.281054 0.211096 0)
(0.118825 0.331959 0)
(0.04122 -0.061776 0)
(0.0729367 -0.0618487 0)
(0.159844 -0.0715493 0)
(0.20254 -0.0487503 0)
(0.279795 -0.0771363 0)
(0.326723 -0.0582682 0)
(0.37288 -0.0753004 0)
(0.473124 -0.0419811 0)
(0.379817 -0.146726 0)
(0.341422 -0.0942773 0)
(0.336974 -0.097702 0)
(0.333658 -0.0677851 0)
(0.360196 -0.0468984 0)
(0.380854 -0.0493016 0)
(0.420597 -0.0349053 0)
(0.429469 -0.0206953 0)
(0.449703 0.00941815 0)
(0.444213 0.0391431 0)
(0.443566 0.0813989 0)
(0.429114 0.117505 0)
(0.361476 0.177051 0)
(0.307005 0.250862 0)
(0.200426 0.411054 0)
(0.0383454 -0.0741626 0)
(0.0753441 -0.0753817 0)
(0.159784 -0.0877424 0)
(0.202173 -0.0641985 0)
(0.278716 -0.0894239 0)
(0.322212 -0.0744986 0)
(0.397638 -0.0945479 0)
(0.35796 -0.0755868 0)
(0.29869 -0.147831 0)
(0.299784 -0.101886 0)
(0.309356 -0.101888 0)
(0.324965 -0.074263 0)
(0.351981 -0.0592223 0)
(0.387428 -0.0657661 0)
(0.428582 -0.0465918 0)
(0.435116 -0.022184 0)
(0.469809 0.00045448 0)
(0.464684 0.0488184 0)
(0.47234 0.0849608 0)
(0.452339 0.130161 0)
(0.407783 0.209546 0)
(0.355122 0.294849 0)
(0.180124 0.582038 0)
(0.033863 -0.0888232 0)
(0.0774009 -0.0907669 0)
(0.158319 -0.101114 0)
(0.197492 -0.0764941 0)
(0.271977 -0.105762 0)
(0.320682 -0.093818 0)
(0.322433 -0.0709208 0)
(0.297722 -0.155131 0)
(0.274309 -0.142305 0)
(0.286062 -0.104233 0)
(0.300402 -0.106631 0)
(0.335471 -0.0940604 0)
(0.36189 -0.077159 0)
(0.411519 -0.0868757 0)
(0.430062 -0.054765 0)
(0.445814 -0.0382958 0)
(0.492687 -0.0081545 0)
(0.495397 0.0253884 0)
(0.49666 0.0904224 0)
(0.502483 0.146763 0)
(0.430316 0.231321 0)
(0.486489 0.364627 0)
(0.314196 0.660776 0)
(0.0306458 -0.0993073 0)
(0.0841734 -0.104262 0)
(0.154422 -0.116597 0)
(0.188042 -0.0970087 0)
(0.260382 -0.125028 0)
(0.304825 -0.0736368 0)
(0.255352 -0.119817 0)
(0.265028 -0.166584 0)
(0.269556 -0.146556 0)
(0.28538 -0.115172 0)
(0.308338 -0.122336 0)
(0.356065 -0.107357 0)
(0.376777 -0.0951569 0)
(0.424776 -0.0982785 0)
(0.432446 -0.066661 0)
(0.462051 -0.0520018 0)
(0.499478 -0.0213509 0)
(0.530007 0.021873 0)
(0.532057 0.0618265 0)
(0.541428 0.186305 0)
(0.51001 0.236395 0)
(0.532513 0.51146 0)
(0.321382 0.854375 0)
(0.0339637 -0.0296705 0)
(0.134661 -0.0130883 0)
(0.166052 0.00713651 0)
(0.106776 0.0200124 0)
(0.0706613 0.0154046 0)
(0.043991 0.00771308 0)
(0.032925 0.00133464 0)
(0.0394294 -0.00224899 0)
(0.0468007 -0.00652244 0)
(0.0715707 -0.006657 0)
(0.0846361 -0.0103593 0)
(0.119291 -0.00907687 0)
(0.129403 -0.000386635 0)
(0.156077 -0.0134423 0)
(0.168313 -0.00754922 0)
(0.178721 0.0205119 0)
(0.174212 0.00601821 0)
(0.0871884 0.00693085 0)
(0.0372209 0.00669235 0)
(0.0546404 -0.0972262 0)
(0.144549 -0.055765 0)
(0.179396 0.0400407 0)
(0.113247 0.0516257 0)
(0.066085 0.0404052 0)
(0.0415597 0.0262192 0)
(0.032124 -0.000733348 0)
(0.0399026 -0.0128138 0)
(0.049795 -0.0193599 0)
(0.0765062 -0.028631 0)
(0.0912035 -0.0259617 0)
(0.13175 -0.011111 0)
(0.13798 -0.0110158 0)
(0.16609 -0.0293826 0)
(0.189112 0.0069101 0)
(0.19307 0.0385704 0)
(0.177678 0.019175 0)
(0.0920042 0.021626 0)
(0.0391422 0.0211735 0)
(0.0812436 -0.182455 0)
(0.190175 -0.0869204 0)
(0.210283 0.0526079 0)
(0.103285 0.109377 0)
(0.0559237 0.0780871 0)
(0.0302327 0.0365584 0)
(0.0194155 -0.00213384 0)
(0.0349205 -0.0253169 0)
(0.0449947 -0.0359347 0)
(0.075746 -0.0447222 0)
(0.0987883 -0.053982 0)
(0.136156 -0.0374597 0)
(0.131198 -0.0150776 0)
(0.180618 -0.0220485 0)
(0.208487 0.0602038 0)
(0.190927 0.024434 0)
(0.17747 0.0308913 0)
(0.0933468 0.035934 0)
(0.0392545 0.0357384 0)
(0.148565 -0.3091 0)
(0.247212 -0.126712 0)
(0.255471 0.0529551 0)
(0.115899 0.175298 0)
(0.0253911 0.123366 0)
(0.00556899 0.0423018 0)
(0.00597789 -0.00283203 0)
(0.025611 -0.0397372 0)
(0.0401887 -0.0527925 0)
(0.0708081 -0.0778718 0)
(0.0940322 -0.0707252 0)
(0.146924 -0.0803819 0)
(0.13825 -0.0159646 0)
(0.200604 0.00936157 0)
(0.216211 0.00648452 0)
(0.18601 0.0491592 0)
(0.184218 0.0435889 0)
(0.0975933 0.050831 0)
(0.0393698 0.050831 0)
(0.295482 -0.393432 0)
(0.373442 -0.156073 0)
(0.298649 0.167739 0)
(0.12707 0.340359 0)
(-0.0176738 0.107382 0)
(-0.0229001 0.0463532 0)
(-0.0145502 -0.0169407 0)
(0.0122103 -0.0605398 0)
(0.0249628 -0.072308 0)
(0.0690975 -0.087772 0)
(0.0978943 -0.121005 0)
(0.157716 -0.0721663 0)
(0.170471 -0.0389762 0)
(0.185788 0.0144025 0)
(0.228217 0.0175678 0)
(0.207902 0.0823345 0)
(0.176569 0.057102 0)
(0.0952233 0.066179 0)
(0.0391035 0.0659725 0)
(0.334556 -0.789231 0)
(0.46074 -0.172918 0)
(0.385881 0.435851 0)
(0.0939261 0.344568 0)
(-0.119714 0.0846677 0)
(-0.0384729 0.0385085 0)
(-0.0401678 -0.0266294 0)
(-0.00209724 -0.0770825 0)
(0.0209382 -0.0992476 0)
(0.054137 -0.155044 0)
(0.105412 -0.113671 0)
(0.185538 -0.0590465 0)
(0.175345 -0.0518452 0)
(0.226906 -0.019903 0)
(0.247609 0.0645706 0)
(0.204781 0.0764987 0)
(0.176322 0.069123 0)
(0.0979226 0.0802847 0)
(0.0391738 0.0808123 0)
(0.298317 -1.11305 0)
(0.374346 -0.346026 0)
(0.348191 0.606104 0)
(-0.0231964 0.319243 0)
(-0.143583 0.116242 0)
(-0.0909103 -0.00145717 0)
(-0.0721914 -0.0536281 0)
(-0.0357405 -0.116533 0)
(-0.00937736 -0.115762 0)
(0.0714301 -0.112135 0)
(0.138112 -0.0859734 0)
(0.195139 -0.0777465 0)
(0.191897 -0.0549892 0)
(0.233551 -0.00865189 0)
(0.266101 0.0483116 0)
(0.213982 0.0849107 0)
(0.177428 0.0825704 0)
(0.0993309 0.0950956 0)
(0.039341 0.0961221 0)
(0.282764 -0.843543 0)
(0.332521 -0.647517 0)
(0.0266263 0.74754 0)
(-0.180755 0.325186 0)
(-0.224865 0.168619 0)
(-0.166512 -0.0110223 0)
(-0.114299 -0.0818568 0)
(-0.0499822 -0.159206 0)
(0.0138483 -0.148182 0)
(0.0694379 -0.0966526 0)
(0.125139 -0.130152 0)
(0.204434 -0.104277 0)
(0.217956 -0.0753783 0)
(0.253018 0.0433263 0)
(0.280302 0.0615848 0)
(0.223858 0.0946127 0)
(0.180513 0.0969574 0)
(0.102042 0.110456 0)
(0.0397 0.112086 0)
(0.0281476 -0.125282 0)
(0.0815976 -0.128873 0)
(0.143319 -0.135095 0)
(0.168942 -0.0915654 0)
(0.257483 -0.13407 0)
(0.226577 -0.141148 0)
(0.221977 -0.17091 0)
(0.258063 -0.170999 0)
(0.26996 -0.145777 0)
(0.290505 -0.134687 0)
(0.334317 -0.147392 0)
(0.362022 -0.13906 0)
(0.390773 -0.109382 0)
(0.432324 -0.122669 0)
(0.457824 -0.0793371 0)
(0.489273 -0.0930841 0)
(0.548279 -0.0544827 0)
(0.556769 0.00133227 0)
(0.619223 0.00367108 0)
(0.587381 0.162181 0)
(0.645074 0.276532 0)
(0.873822 0.656304 0)
(0.699365 0.947332 0)
(0.0378007 -0.144038 0)
(0.0633001 -0.156818 0)
(0.15543 -0.151836 0)
(0.14534 -0.17308 0)
(0.160233 -0.164031 0)
(0.202294 -0.200013 0)
(0.223155 -0.177466 0)
(0.248907 -0.190816 0)
(0.278462 -0.176841 0)
(0.314186 -0.172177 0)
(0.356945 -0.188794 0)
(0.382366 -0.153137 0)
(0.409099 -0.157848 0)
(0.440394 -0.12857 0)
(0.449282 -0.118942 0)
(0.489384 -0.13647 0)
(0.566459 -0.084034 0)
(0.517269 0.0108101 0)
(0.630638 0.0791159 0)
(0.868779 0.213078 0)
(1.02365 0.43514 0)
(0.94197 0.549161 0)
(1.00399 0.656226 0)
(0.0245393 -0.176948 0)
(0.0522913 -0.190841 0)
(0.098403 -0.179796 0)
(0.130751 -0.218869 0)
(0.162198 -0.202205 0)
(0.191495 -0.20433 0)
(0.22682 -0.216394 0)
(0.255445 -0.230148 0)
(0.302268 -0.213616 0)
(0.324747 -0.209614 0)
(0.367443 -0.204796 0)
(0.397939 -0.192573 0)
(0.43406 -0.159117 0)
(0.409141 -0.20488 0)
(0.397248 -0.26395 0)
(0.488577 -0.254007 0)
(0.550232 -0.141584 0)
(0.656019 -0.0780242 0)
(0.751054 0.177523 0)
(0.821659 0.157205 0)
(0.926932 0.281387 0)
(0.984798 0.291962 0)
(0.992964 0.423247 0)
(0.0247853 -0.221855 0)
(0.0553994 -0.229733 0)
(0.100683 -0.228142 0)
(0.125756 -0.232843 0)
(0.159602 -0.225723 0)
(0.189668 -0.249167 0)
(0.22649 -0.245856 0)
(0.251515 -0.257907 0)
(0.30242 -0.251745 0)
(0.345369 -0.237012 0)
(0.42741 -0.270391 0)
(0.476258 -0.202147 0)
(0.376379 -0.173758 0)
(0.305783 -0.310798 0)
(0.377144 -0.303043 0)
(0.605834 -0.340173 0)
(0.662873 -0.20348 0)
(0.764989 -0.14248 0)
(0.772962 0.0496564 0)
(0.818552 0.0493677 0)
(0.848612 0.128904 0)
(0.969786 0.15666 0)
(0.960522 0.223512 0)
(0.0206055 -0.257226 0)
(0.0548511 -0.265568 0)
(0.0875939 -0.251476 0)
(0.120527 -0.271101 0)
(0.157072 -0.268873 0)
(0.179856 -0.269065 0)
(0.210617 -0.278851 0)
(0.243634 -0.30699 0)
(0.307038 -0.308269 0)
(0.35912 -0.328144 0)
(0.495399 -0.336908 0)
(0.561494 -0.182581 0)
(0.3941 -0.122135 0)
(0.37872 -0.318699 0)
(0.455493 -0.333059 0)
(0.571541 -0.496326 0)
(0.592156 -0.356026 0)
(0.800504 -0.137054 0)
(0.818775 0.070687 0)
(1.07678 0.0351313 0)
(1.11754 0.0901627 0)
(1.10587 0.126991 0)
(1.13082 0.13854 0)
(0.023397 -0.298622 0)
(0.0545705 -0.297376 0)
(0.0916914 -0.296862 0)
(0.121539 -0.299586 0)
(0.148263 -0.290035 0)
(0.174247 -0.297078 0)
(0.191043 -0.311376 0)
(0.225988 -0.350796 0)
(0.268802 -0.363809 0)
(0.345691 -0.424426 0)
(0.531203 -0.448762 0)
(0.671851 -0.0808411 0)
(0.445916 0.141104 0)
(0.405308 -0.39742 0)
(0.424976 -0.477881 0)
(0.584128 -0.52876 0)
(0.616015 -0.3886 0)
(0.819672 0.310615 0)
(0.834209 -0.019326 0)
(0.940568 -0.0790096 0)
(1.00474 -0.692816 0)
(1.43625 0.124381 0)
(1.25772 0.215589 0)
(0.0224418 -0.333386 0)
(0.0589756 -0.335142 0)
(0.083112 -0.317337 0)
(0.114203 -0.325363 0)
(0.153553 -0.323882 0)
(0.161227 -0.316671 0)
(0.155627 -0.335649 0)
(0.180259 -0.374708 0)
(0.224663 -0.42759 0)
(0.378019 -0.595293 0)
(0.661666 -0.602672 0)
(1.01299 0.0442065 0)
(1.02092 0.276251 0)
(1.10385 -0.0409735 0)
(1.33992 -0.539847 0)
(1.39604 -0.589821 0)
(1.36051 -0.552884 0)
(1.26438 -0.366148 0)
(1.31116 -0.284495 0)
(1.44348 -0.182425 0)
(1.45855 0.02006 0)
(1.57665 0.216022 0)
(1.62447 -0.365133 0)
(0.046262 -0.381781 0)
(0.0480122 -0.350407 0)
(0.114758 -0.360389 0)
(0.129752 -0.375032 0)
(0.170303 -0.334683 0)
(0.154251 -0.320355 0)
(0.139754 -0.350017 0)
(0.14848 -0.435944 0)
(0.268624 -0.598371 0)
(0.589476 -0.842733 0)
(0.637615 -0.559318 0)
(0.947071 -0.789147 0)
(1.11952 -0.580807 0)
(1.37097 -0.668068 0)
(1.54771 -0.676631 0)
(1.63299 -0.54118 0)
(1.64132 -0.398188 0)
(1.58332 -0.158054 0)
(1.63637 -0.154136 0)
(1.62208 -0.162331 0)
(1.62948 -0.216814 0)
(1.62135 -0.0653423 0)
(1.66216 0.358768 0)
(0.00503426 -0.435026 0)
(0.022478 -0.406427 0)
(0.0967274 -0.392055 0)
(0.12118 -0.387324 0)
(0.188623 -0.346874 0)
(0.205131 -0.294801 0)
(0.327267 -0.344623 0)
(0.339297 -0.561016 0)
(0.498534 -0.87193 0)
(0.697187 -0.88648 0)
(0.83056 -0.918388 0)
(0.976731 -1.05086 0)
(1.1944 -1.02469 0)
(1.40374 -1.0015 0)
(1.4387 -0.79442 0)
(1.58241 -0.64157 0)
(1.66138 -0.360934 0)
(1.46635 -0.119502 0)
(1.45112 0.0646402 0)
(1.374 -0.0917634 0)
(1.44842 -0.0635411 0)
(1.889 0.121985 0)
(1.80099 0.31463 0)
(0.0190517 -0.440683 0)
(0.0173403 -0.447539 0)
(0.078409 -0.464873 0)
(0.151449 -0.445384 0)
(0.221967 -0.405294 0)
(0.262716 -0.406978 0)
(0.442997 -0.457904 0)
(0.445752 -0.596207 0)
(0.653721 -0.662864 0)
(0.668187 -0.899281 0)
(0.868626 -1.02664 0)
(0.80588 -1.1608 0)
(1.07179 -1.1647 0)
(0.984803 -1.1145 0)
(0.952733 -0.922711 0)
(1.20267 -0.638168 0)
(1.38005 -0.22891 0)
(1.36629 0.0919381 0)
(1.25026 -0.0624839 0)
(1.02828 -0.0490394 0)
(1.09037 0.0324706 0)
(1.14809 0.115784 0)
(1.17149 0.11704 0)
(-0.00979606 -0.449878 0)
(0.0473202 -0.476902 0)
(0.0686935 -0.530271 0)
(0.128977 -0.518682 0)
(0.182877 -0.488667 0)
(0.203646 -0.547406 0)
(0.389963 -0.601934 0)
(0.400533 -0.653675 0)
(0.473885 -0.594785 0)
(0.459637 -0.743275 0)
(0.540415 -0.945182 0)
(0.271296 -1.0977 0)
(0.468259 -1.22361 0)
(0.200567 -1.0858 0)
(0.233834 -0.89058 0)
(0.62113 -0.298227 0)
(0.787262 -0.283392 0)
(0.826307 -0.309684 0)
(0.722297 -0.38819 0)
(0.648975 -0.179826 0)
(0.785544 -0.0740264 0)
(1.27199 -0.02017 0)
(1.23281 -0.0559795 0)
(-0.0167529 -0.491156 0)
(0.077592 -0.499975 0)
(0.070624 -0.609569 0)
(0.112211 -0.56609 0)
(0.103507 -0.539068 0)
(0.17735 -0.58409 0)
(0.443376 -0.631186 0)
(0.368887 -0.731646 0)
(0.334791 -0.78364 0)
(0.349473 -0.901674 0)
(0.312352 -1.24626 0)
(0.0362715 -1.12433 0)
(0.124917 -1.17367 0)
(-0.064397 -0.964128 0)
(-0.0678123 -0.795952 0)
(-0.0795959 -0.651178 0)
(0.042124 -0.371839 0)
(0.124873 -0.459955 0)
(0.183143 -0.197202 0)
(0.374237 0.021428 0)
(0.830193 0.108253 0)
(0.83359 0.00283974 0)
(1.00667 -0.406182 0)
(-0.00774895 -0.502778 0)
(0.0789525 -0.513203 0)
(0.0552949 -0.666998 0)
(0.0981071 -0.589305 0)
(0.104622 -0.557154 0)
(0.219738 -0.584078 0)
(0.284976 -0.713701 0)
(0.156575 -0.866759 0)
(0.411827 -1.00741 0)
(0.273352 -1.23253 0)
(0.145339 -1.32288 0)
(-0.0178537 -1.01972 0)
(0.00507414 -1.02256 0)
(-0.123758 -0.937967 0)
(-0.204333 -0.88219 0)
(-0.128392 -0.739844 0)
(0.00975726 -0.436212 0)
(0.0723784 -0.437865 0)
(0.00313385 -0.555265 0)
(0.101422 -0.371111 0)
(0.588887 -0.158313 0)
(0.693099 -0.316529 0)
(0.919691 -0.303925 0)
(-0.00580847 -0.504344 0)
(0.0414269 -0.531339 0)
(0.0348529 -0.677963 0)
(0.103725 -0.580513 0)
(0.122702 -0.550331 0)
(0.172346 -0.624404 0)
(0.210862 -0.785948 0)
(0.0563158 -0.912609 0)
(0.197775 -1.15649 0)
(0.178211 -1.3393 0)
(0.158399 -1.1726 0)
(-0.0487078 -0.994937 0)
(-0.0776848 -1.05984 0)
(-0.120674 -1.01515 0)
(-0.16553 -0.793964 0)
(-0.212654 -0.508935 0)
(-0.0167136 -0.520101 0)
(0.0587924 -0.39633 0)
(0.080687 -0.728327 0)
(0.378285 -0.579707 0)
(0.698577 -0.362359 0)
(0.784242 -0.443135 0)
(1.00398 -0.46038 0)
(0.00593077 -0.534516 0)
(0.0371839 -0.559945 0)
(0.041761 -0.690115 0)
(0.0775076 -0.593712 0)
(0.0979932 -0.523591 0)
(0.0890722 -0.648087 0)
(0.0619479 -0.749026 0)
(-0.0469135 -0.896185 0)
(0.00550463 -0.893192 0)
(0.195251 -1.199 0)
(0.247971 -1.1385 0)
(-0.0889412 -1.08286 0)
(-0.26716 -0.999735 0)
(-0.0836679 -0.978605 0)
(0.0332919 -0.856053 0)
(-0.133781 -0.802328 0)
(-0.0410638 -0.721158 0)
(-0.0431494 -0.725606 0)
(0.033444 -0.682833 0)
(0.438473 -0.629858 0)
(0.717145 -0.657608 0)
(1.03361 -0.679961 0)
(1.40205 -0.691695 0)
(0.0120532 -0.590567 0)
(0.0226193 -0.599764 0)
(0.0249882 -0.742455 0)
(0.0811387 -0.626944 0)
(0.0798847 -0.524758 0)
(0.0629801 -0.670536 0)
(0.0233326 -0.699088 0)
(-0.0233869 -0.763456 0)
(-0.105294 -0.795653 0)
(-0.0475557 -0.950832 0)
(0.199849 -1.04297 0)
(-0.0739435 -1.11081 0)
(-0.133026 -0.982393 0)
(-0.0960144 -0.920835 0)
(-0.0523605 -1.0016 0)
(-0.0959859 -1.06756 0)
(0.0220734 -0.875005 0)
(0.112302 -0.941004 0)
(0.249156 -0.724482 0)
(0.494233 -0.774514 0)
(0.797414 -0.742677 0)
(1.20559 -0.872128 0)
(1.46484 -0.854587 0)
(0.0189279 -0.603664 0)
(0.0120606 -0.610472 0)
(0.0271967 -0.762599 0)
(0.0727487 -0.620896 0)
(0.0624929 -0.478204 0)
(0.00704459 -0.612786 0)
(0.00245354 -0.690934 0)
(-0.0331495 -0.723679 0)
(-0.0715765 -0.801329 0)
(-0.0560748 -0.809052 0)
(-0.0430205 -0.96583 0)
(-0.141599 -0.937976 0)
(-0.217902 -0.936696 0)
(-0.172862 -0.935329 0)
(-0.15146 -0.922033 0)
(0.0417506 -0.782982 0)
(0.023553 -0.929782 0)
(0.144293 -1.00905 0)
(0.275577 -0.886371 0)
(0.554935 -0.888493 0)
(0.733255 -0.989445 0)
(1.19639 -1.02496 0)
(1.10951 -1.1035 0)
(0.0180424 -0.510742 0)
(-0.0143151 -0.535275 0)
(0.0449368 -0.738239 0)
(0.114773 -0.55488 0)
(0.0147089 -0.603869 0)
(-0.0467073 -0.554614 0)
(-0.0227844 -0.629728 0)
(-0.0817969 -0.670881 0)
(-0.0769304 -0.78853 0)
(-0.103854 -0.839605 0)
(-0.0701776 -0.899604 0)
(-0.13944 -0.968697 0)
(-0.223601 -0.960735 0)
(-0.07777 -0.816011 0)
(-0.0782103 -0.79687 0)
(-0.074919 -0.608171 0)
(-0.198198 -0.896428 0)
(0.0867805 -0.919785 0)
(0.327823 -0.888308 0)
(0.466202 -1.02264 0)
(0.69877 -1.08707 0)
(0.981177 -1.10044 0)
(1.09272 -1.42707 0)
(-0.0178637 -0.914401 0)
(-0.119976 -0.889269 0)
(0.0235097 -0.738124 0)
(-0.077259 -0.954392 0)
(-0.0176983 -0.939604 0)
(0.0700843 -0.930214 0)
(-0.114756 -0.827359 0)
(-0.154248 -0.669805 0)
(-0.0942017 -0.848629 0)
(-0.0914431 -0.876885 0)
(-0.134254 -0.912199 0)
(-0.111535 -1.00702 0)
(-0.0153191 -1.01778 0)
(-0.00903897 -0.817227 0)
(-0.040184 -0.796672 0)
(-0.152649 -0.872265 0)
(-0.216911 -0.923308 0)
(0.0587217 -0.895719 0)
(0.175361 -0.939278 0)
(0.282892 -1.06484 0)
(0.659218 -1.22322 0)
(0.64829 -1.41956 0)
(0.875625 -1.66313 0)
(0.000411829 -1.09852 0)
(0.13308 -1.11471 0)
(0.0021271 -1.11302 0)
(-0.179193 -1.10111 0)
(-0.0452944 -1.056 0)
(-0.0475039 -1.12837 0)
(0.137752 -0.998702 0)
(-0.0735442 -1.0301 0)
(-0.165692 -0.860174 0)
(-0.0137127 -0.891324 0)
(-0.0684603 -0.948051 0)
(-0.104248 -0.956599 0)
(0.0873909 -0.834161 0)
(0.137045 -0.980606 0)
(-0.163645 -1.06494 0)
(-0.207183 -1.16527 0)
(-0.133661 -1.03737 0)
(0.0267754 -1.02304 0)
(0.149951 -1.03999 0)
(0.218663 -1.14129 0)
(0.382376 -1.31447 0)
(0.563837 -1.63002 0)
(0.766641 -1.97082 0)
(-0.00509924 -1.11931 0)
(0.0218659 -1.15273 0)
(-0.00367489 -1.2223 0)
(-0.10355 -1.10692 0)
(-0.0228604 -1.12009 0)
(-0.0169526 -1.12358 0)
(-0.018127 -1.02364 0)
(-0.0161442 -1.21063 0)
(0.086213 -0.831029 0)
(0.00648061 -0.837013 0)
(-0.0324935 -0.959109 0)
(0.112791 -0.974667 0)
(-0.0414774 -1.06644 0)
(-0.0919807 -1.18583 0)
(-0.0377669 -1.22439 0)
(-0.0293781 -1.2564 0)
(-0.0474823 -1.09238 0)
(0.00357526 -1.07442 0)
(0.0857285 -1.0519 0)
(0.0810443 -1.18883 0)
(0.153534 -1.39239 0)
(0.242644 -1.62656 0)
(0.289029 -2.0233 0)
(-0.00743354 -1.11616 0)
(0.0072189 -1.14468 0)
(-0.0175962 -1.12721 0)
(-0.102275 -1.12972 0)
(-0.0155727 -1.16555 0)
(-0.0217287 -1.14947 0)
(-0.115795 -1.14549 0)
(0.0993612 -0.90706 0)
(0.217822 -0.897185 0)
(0.0572169 -1.02945 0)
(-0.125482 -1.00211 0)
(0.00833455 -1.07151 0)
(-0.0263603 -1.21052 0)
(-0.050272 -1.17126 0)
(-0.0881067 -1.2402 0)
(0.0057275 -1.2568 0)
(-0.0255075 -1.15234 0)
(0.0405243 -1.18486 0)
(0.0653319 -1.04506 0)
(-0.0506287 -1.26449 0)
(-0.0622774 -1.43885 0)
(-0.0344037 -1.72106 0)
(0.103572 -2.03889 0)
(-0.0126988 -1.09559 0)
(-0.0138563 -1.12255 0)
(-0.101487 -1.11279 0)
(-0.166929 -1.14073 0)
(0.0220195 -0.850387 0)
(0.0168808 -1.17336 0)
(0.0510975 -0.813161 0)
(0.188337 -0.755407 0)
(0.0390229 -0.829409 0)
(0.0180359 -1.1018 0)
(-0.0429441 -1.01389 0)
(-0.0273009 -1.0781 0)
(-0.0448182 -1.08822 0)
(-0.134888 -1.14927 0)
(-0.114865 -1.22454 0)
(0.0324106 -1.06448 0)
(-0.0164639 -1.17408 0)
(0.0997074 -1.20497 0)
(0.0023209 -1.37666 0)
(-0.120168 -1.3195 0)
(-0.195312 -1.46275 0)
(-0.218058 -1.66217 0)
(-0.307619 -2.06866 0)
(-0.0137484 -1.1151 0)
(-0.0115699 -1.14021 0)
(-0.134791 -1.07999 0)
(0.0693828 -0.788338 0)
(0.00684922 -0.725962 0)
(0.0486275 -0.783215 0)
(0.148264 -0.67789 0)
(0.1164 -0.665344 0)
(-0.00914602 -0.774728 0)
(-0.0511312 -0.921244 0)
(-0.0739132 -0.973563 0)
(-0.0785807 -1.03372 0)
(-0.0878879 -1.05186 0)
(-0.170863 -1.12734 0)
(0.0185568 -1.03996 0)
(0.0852406 -1.12296 0)
(-0.113804 -1.14049 0)
(-0.121807 -1.22915 0)
(-0.0584285 -1.48046 0)
(-0.0931812 -1.34483 0)
(-0.263976 -1.42002 0)
(-0.311467 -1.51159 0)
(-0.527897 -1.88936 0)
(-0.00885887 -0.705194 0)
(0.0279806 -0.74 0)
(0.128811 -0.791397 0)
(0.155962 -0.628031 0)
(0.0489098 -0.701223 0)
(0.0802754 -0.650932 0)
(0.141319 -0.653333 0)
(0.0807084 -0.850511 0)
(-0.193698 -0.957543 0)
(-0.198338 -0.955369 0)
(-0.140822 -1.00943 0)
(-0.122621 -1.04549 0)
(-0.144186 -1.07446 0)
(-0.0976698 -1.18957 0)
(-0.0503448 -0.997739 0)
(0.0303554 -1.27228 0)
(-0.0360432 -1.09664 0)
(-0.212405 -1.23187 0)
(-0.163785 -1.40659 0)
(-0.0939523 -1.29922 0)
(-0.286407 -1.38318 0)
(-0.498432 -1.54514 0)
(-0.813299 -2.0837 0)
(-0.0104096 -0.569286 0)
(0.0184384 -0.605087 0)
(0.0213 -0.587739 0)
(0.0732848 -0.534119 0)
(0.0195135 -0.611146 0)
(0.101075 -0.643542 0)
(-0.119926 -0.958513 0)
(-0.205922 -1.03745 0)
(-0.178573 -1.06024 0)
(-0.15267 -0.999911 0)
(-0.163699 -0.99752 0)
(-0.162808 -1.00466 0)
(-0.24194 -1.03225 0)
(-0.104609 -0.976717 0)
(-0.0351473 -1.10074 0)
(0.123713 -1.29645 0)
(-0.0221772 -1.32287 0)
(-0.307375 -1.28775 0)
(-0.195468 -1.39943 0)
(-0.0389567 -1.28703 0)
(-0.42922 -1.52292 0)
(-0.856859 -1.61132 0)
(-0.929028 -2.11732 0)
(-0.00968119 -0.568601 0)
(0.0318458 -0.604133 0)
(0.0860405 -0.685188 0)
(0.137627 -0.801282 0)
(-0.0655622 -0.942313 0)
(-0.233458 -0.943738 0)
(-0.235316 -1.06849 0)
(-0.13802 -1.02207 0)
(-0.13601 -0.994749 0)
(-0.152847 -0.983524 0)
(-0.159383 -0.978333 0)
(-0.156706 -0.975477 0)
(-0.183657 -0.981646 0)
(-0.182045 -0.912823 0)
(-0.220879 -1.0579 0)
(-0.112255 -1.04018 0)
(0.033785 -1.38304 0)
(-0.217397 -1.17354 0)
(-0.172333 -1.19754 0)
(-0.240503 -1.43913 0)
(-0.488963 -1.59443 0)
(-0.955027 -1.51774 0)
(-1.32094 -1.77989 0)
(0.0103287 -0.96033 0)
(-0.0159536 -0.995164 0)
(-0.157685 -0.992905 0)
(-0.186628 -1.03944 0)
(-0.143029 -1.07111 0)
(-0.19285 -1.11727 0)
(-0.146488 -1.04751 0)
(-0.1153 -0.996836 0)
(-0.140432 -1.00564 0)
(-0.14127 -0.992449 0)
(-0.158595 -0.990321 0)
(-0.165354 -0.98487 0)
(-0.183565 -0.989129 0)
(-0.19122 -0.943581 0)
(-0.185463 -0.976481 0)
(-0.205962 -0.962995 0)
(-0.145325 -1.23847 0)
(-0.165735 -1.09949 0)
(-0.382505 -1.19412 0)
(-0.464839 -1.30381 0)
(-0.390734 -1.48101 0)
(-1.01287 -1.5499 0)
(-1.43927 -1.55616 0)
(-0.00871957 -1.08464 0)
(-0.0256836 -1.1195 0)
(-0.0833563 -1.14104 0)
(-0.112217 -1.07715 0)
(-0.13328 -1.04269 0)
(-0.176045 -1.03217 0)
(-0.144151 -0.980078 0)
(-0.11007 -0.998851 0)
(-0.140526 -0.974987 0)
(-0.145532 -0.976112 0)
(-0.154984 -0.965472 0)
(-0.172596 -0.962138 0)
(-0.168107 -0.948389 0)
(-0.201607 -0.879764 0)
(-0.249372 -0.948241 0)
(-0.290037 -1.00018 0)
(-0.0981344 -1.03883 0)
(-0.215259 -1.26071 0)
(-0.405335 -1.30483 0)
(-0.479031 -1.19987 0)
(-0.735286 -1.31693 0)
(-0.942232 -1.55289 0)
(-1.27616 -1.36012 0)
(-0.0144727 -1.03439 0)
(-0.0373836 -1.05732 0)
(-0.0863301 -1.05276 0)
(-0.115876 -1.04417 0)
(-0.156051 -1.05449 0)
(-0.112555 -1.00389 0)
(-0.1031 -0.965665 0)
(-0.121187 -0.974458 0)
(-0.125864 -0.961614 0)
(-0.140068 -0.949925 0)
(-0.140194 -0.935118 0)
(-0.162723 -0.927166 0)
(-0.133725 -0.898133 0)
(-0.207085 -0.84821 0)
(-0.269384 -0.914966 0)
(-0.274764 -0.946416 0)
(-0.316055 -0.949053 0)
(-0.341712 -1.25001 0)
(-0.318404 -1.03715 0)
(-0.480203 -1.21704 0)
(-0.708344 -1.01132 0)
(-0.95448 -1.10877 0)
(-1.22982 -1.17801 0)
(-0.0190051 -1.04035 0)
(-0.0405623 -1.05925 0)
(-0.0760654 -1.04725 0)
(-0.118776 -1.05017 0)
(-0.0997058 -0.992079 0)
(-0.0970177 -0.96732 0)
(-0.1063 -0.965878 0)
(-0.112006 -0.95994 0)
(-0.113385 -0.95114 0)
(-0.123641 -0.944568 0)
(-0.122816 -0.937102 0)
(-0.128461 -0.940227 0)
(-0.0712902 -0.927688 0)
(-0.261329 -0.957454 0)
(-0.326543 -0.920138 0)
(-0.306121 -0.92238 0)
(-0.347664 -0.93703 0)
(-0.256185 -0.947229 0)
(-0.338437 -0.986876 0)
(-0.449522 -1.11606 0)
(-0.654697 -1.00489 0)
(-1.01902 -0.886535 0)
(-1.09133 -0.785447 0)
(-0.0190916 -1.02218 0)
(-0.0281592 -1.02559 0)
(-0.0845606 -1.02588 0)
(-0.0755708 -0.995785 0)
(-0.0718491 -0.975044 0)
(-0.0926825 -0.973385 0)
(-0.0948913 -0.96052 0)
(-0.108355 -0.9556 0)
(-0.107464 -0.948881 0)
(-0.123744 -0.949346 0)
(-0.135149 -0.94819 0)
(-0.158877 -0.960238 0)
(-0.166544 -0.971942 0)
(-0.228512 -1.01249 0)
(-0.243168 -0.876339 0)
(-0.268687 -0.85807 0)
(-0.303916 -0.844363 0)
(-0.361232 -0.843129 0)
(-0.393703 -1.02485 0)
(-0.45544 -1.03741 0)
(-0.42128 -1.10957 0)
(-0.671392 -0.763049 0)
(-1.13223 -0.637833 0)
(-0.00529506 -1.00133 0)
(-0.026625 -1.00609 0)
(-0.0395977 -1.00086 0)
(-0.0640486 -0.964699 0)
(-0.0667038 -0.969118 0)
(-0.0808129 -0.952479 0)
(-0.0915445 -0.950148 0)
(-0.0967428 -0.937802 0)
(-0.10664 -0.932453 0)
(-0.116068 -0.928501 0)
(-0.128249 -0.921233 0)
(-0.14919 -0.91588 0)
(-0.166482 -0.901974 0)
(-0.227273 -0.890496 0)
(-0.2416 -0.816485 0)
(-0.278498 -0.81181 0)
(-0.3112 -0.795229 0)
(-0.39502 -0.822448 0)
(-0.47339 -0.8458 0)
(-0.46787 -0.721476 0)
(-0.338833 -0.719948 0)
(-0.549287 -0.784779 0)
(-0.996588 -0.631841 0)
(-0.0120273 -0.956462 0)
(-0.0198511 -0.965183 0)
(-0.0413911 -0.962472 0)
(-0.0474965 -0.957212 0)
(-0.0605979 -0.944689 0)
(-0.0685545 -0.943445 0)
(-0.0779997 -0.929848 0)
(-0.088928 -0.926488 0)
(-0.0980551 -0.917613 0)
(-0.111604 -0.913716 0)
(-0.124208 -0.906221 0)
(-0.140453 -0.90009 0)
(-0.15617 -0.886114 0)
(-0.182177 -0.867602 0)
(-0.195746 -0.793015 0)
(-0.231078 -0.777362 0)
(-0.262289 -0.740647 0)
(-0.335536 -0.729152 0)
(-0.315638 -0.726344 0)
(-0.344528 -0.631063 0)
(-0.37482 -0.597971 0)
(-0.402113 -0.76735 0)
(-0.902418 -0.651456 0)
(-0.00319476 -0.939608 0)
(-0.019068 -0.950234 0)
(-0.025276 -0.946097 0)
(-0.0406432 -0.932542 0)
(-0.0467665 -0.929362 0)
(-0.0598171 -0.914728 0)
(-0.0677043 -0.910463 0)
(-0.0799997 -0.89623 0)
(-0.0888308 -0.887748 0)
(-0.102568 -0.876157 0)
(-0.114161 -0.864527 0)
(-0.132411 -0.852425 0)
(-0.146495 -0.837386 0)
(-0.172823 -0.812114 0)
(-0.184256 -0.758967 0)
(-0.224359 -0.74562 0)
(-0.237033 -0.715879 0)
(-0.288352 -0.679067 0)
(-0.327898 -0.635662 0)
(-0.332568 -0.6582 0)
(-0.407261 -0.574912 0)
(-0.455058 -0.709015 0)
(-0.505358 -0.589883 0)
(-0.00734868 -0.913303 0)
(-0.0138035 -0.923127 0)
(-0.0287248 -0.920232 0)
(-0.0343731 -0.915705 0)
(-0.0448475 -0.906594 0)
(-0.0517298 -0.903595 0)
(-0.0600691 -0.889699 0)
(-0.0688063 -0.886402 0)
(-0.0770713 -0.87234 0)
(-0.0879433 -0.86365 0)
(-0.0974133 -0.847954 0)
(-0.111266 -0.833814 0)
(-0.121534 -0.813584 0)
(-0.140661 -0.790645 0)
(-0.148129 -0.736471 0)
(-0.182899 -0.7118 0)
(-0.211138 -0.671516 0)
(-0.245623 -0.650968 0)
(-0.26962 -0.61913 0)
(-0.267221 -0.607355 0)
(-0.448095 -0.552124 0)
(-0.44158 -0.47582 0)
(-0.406665 -0.453363 0)
(-0.00170119 -0.900048 0)
(-0.0121587 -0.91037 0)
(-0.0171159 -0.907104 0)
(-0.0276571 -0.898929 0)
(-0.0323376 -0.896053 0)
(-0.0414688 -0.883242 0)
(-0.0477286 -0.877469 0)
(-0.0552888 -0.86193 0)
(-0.0632601 -0.851571 0)
(-0.0716689 -0.834934 0)
(-0.0801473 -0.820986 0)
(-0.0924223 -0.801016 0)
(-0.100902 -0.784094 0)
(-0.119416 -0.755334 0)
(-0.125265 -0.716189 0)
(-0.155586 -0.689166 0)
(-0.173369 -0.654982 0)
(-0.203019 -0.620196 0)
(-0.256929 -0.607837 0)
(-0.272191 -0.661896 0)
(-0.286933 -0.561573 0)
(-0.332526 -0.389005 0)
(-0.265573 -0.4053 0)
(-0.00404516 -0.880655 0)
(-0.00805668 -0.889183 0)
(-0.0177719 -0.885971 0)
(-0.0211928 -0.881848 0)
(-0.0291462 -0.874621 0)
(-0.0331392 -0.869098 0)
(-0.0387705 -0.858931 0)
(-0.0435817 -0.850896 0)
(-0.0471354 -0.837767 0)
(-0.0528658 -0.825747 0)
(-0.054671 -0.808158 0)
(-0.0645636 -0.790057 0)
(-0.0677308 -0.767133 0)
(-0.0893203 -0.737843 0)
(-0.0890163 -0.696718 0)
(-0.124779 -0.659447 0)
(-0.149028 -0.61796 0)
(-0.177311 -0.57405 0)
(-0.25898 -0.544115 0)
(-0.203414 -0.48295 0)
(-0.163615 -0.496473 0)
(-0.210602 -0.374443 0)
(-0.239191 -0.306259 0)
(-0.000971613 -0.855241 0)
(-0.00529429 -0.86227 0)
(-0.00816562 -0.859992 0)
(-0.0127486 -0.855429 0)
(-0.015478 -0.850865 0)
(-0.0198784 -0.843379 0)
(-0.0225705 -0.836077 0)
(-0.0266865 -0.825752 0)
(-0.0288266 -0.814888 0)
(-0.0329987 -0.801125 0)
(-0.032872 -0.784996 0)
(-0.0398125 -0.766587 0)
(-0.0358153 -0.739989 0)
(-0.0574306 -0.710575 0)
(-0.045095 -0.6784 0)
(-0.0855577 -0.642171 0)
(-0.0987654 -0.600666 0)
(-0.124464 -0.548578 0)
(-0.151421 -0.514411 0)
(-0.170485 -0.410295 0)
(-0.177315 -0.4257 0)
(-0.198095 -0.366848 0)
(-0.219909 -0.416714 0)
(-0.00116282 -0.848603 0)
(-0.00437359 -0.854276 0)
(-0.00808877 -0.85151 0)
(-0.0112972 -0.847265 0)
(-0.0144532 -0.841945 0)
(-0.017417 -0.83536 0)
(-0.0198398 -0.827213 0)
(-0.022297 -0.818174 0)
(-0.0233812 -0.806482 0)
(-0.0251004 -0.793956 0)
(-0.0237332 -0.776846 0)
(-0.0230232 -0.759053 0)