/*--------------------------------*- C++ -*----------------------------------*\
| =========                 |                                                 |
| \\      /  F ield         | foam-extend: Open Source CFD                    |
|  \\    /   O peration     | Version:     4.1                                |
|   \\  /    A nd           | Web:         http://www.foam-extend.org         |
|    \\/     M anipulation  |                                                 |
\*---------------------------------------------------------------------------*/
FoamFile
{
    version     2.0;
    format      ascii;
    class       volScalarField;
    location    "0.9";
    object      alpha1;
}
// * * * * * * * * * * * * * * * * * * * * * * * * * * * * * * * * * * * * * //

dimensions      [0 0 0 0 0 0 0];

internalField   nonuniform List<scalar> 
2268
(
1
1
0.999999
0.999999
0.999999
1
1
1
1
1
1
1
1
1
1
1
1
1
1
1
1
1
0.999995
0.999999
0.999999
1
1
1
1
1
1
1
1
1
1
1
1
1
1
1
1
1
1
1
0.999999
0.999984
0.999999
1
1
1
1
1
1
1
1
1
1
1
1
1
1
1
1
1
1
1
1
0.999999
0.999979
1
1
1
1
1
1
1
1
1
1
1
1
1
1
0.999996
0.999995
0.999972
1
1
1
1
0.999998
0.999983
1
1
1
1
1
1
1
1
1
1
1
1
0.999998
0.999895
0.999262
0.999214
0.997817
0.999899
1
1
1
0.999999
0.999996
1
0.999996
0.999966
0.999959
0.999978
1
1
1
1
1
1
0.999998
0.999701
0.995375
0.985487
0.984081
0.973257
0.994047
0.999998
1
1
0.999982
0.999993
1
0.999994
0.999913
0.999849
0.999907
1
1
1
1
1
1
0.999902
0.995312
0.966928
0.932266
0.921385
0.897532
0.921268
0.994604
0.999989
0.999539
0.995604
0.999454
0.999999
0.999982
0.999878
0.999824
0.999943
0.999998
1
1
1
1
0.999984
0.99848
0.981853
0.933007
0.873201
0.851113
0.813983
0.78026
0.979423
0.999586
0.988533
0.959977
0.993536
0.888382
0.914038
0.975903
0.977487
0.914807
0.891111
0.894817
0.889247
0.885724
0.866875
0.871785
0.855936
0.887356
0.959238
0.965657
0.965719
0.978703
0.990252
0.986946
0.887223
0.847025
0.954525
0.979258
0.881531
0.85893
0.45775
0.39091
0.391557
0.660768
0.83908
0.673753
0.672454
0.672957
0.836869
0.916902
0.979227
0.981484
0.868493
0.575675
0.538665
0.868773
0.979258
0.908008
0.844671
0.682049
0.466475
0.391707
0.845758
0.89256
0.929915
0.92673
0.867722
0.843975
0.910487
0.982116
0.965601
0.639525
0.753941
0.439062
0.72742
0.968875
0.959756
0.863786
0.875028
0.849172
0.833575
0.653211
0.536065
0.81326
0.908087
0.981344
0.987441
0.98955
0.98955
0.975209
0.805245
0.86095
0.439213
0.777398
0.818992
0.780062
0.810273
0.875333
0.875028
0.649852
0.337385
0.336556
0.375792
0.506408
0.856852
0.987485
0.989549
0.98955
0.989549
0.940895
0.711516
0.489736
0.868901
0.495356
0.199773
0.508601
0.842711
0.732378
0.255604
0.647094
0.709599
0.357741
0.357097
0.703714
0.922576
0.988971
0.989549
0.989549
0.986614
0.78729
0.819231
0.867419
0.224042
0.0413989
0.159527
0.442004
0.261999
0.215482
0.784437
0.784559
0.748988
0.767675
0.779421
0.730973
0.912194
0.982662
0.968317
0.986756
0.931652
0.93464
0.610914
0.0780343
0.0385499
0.110003
0.0751077
0.0871546
0.494572
0.784559
0.784559
0.784559
0.784559
0.78047
0.393906
0.711154
0.945925
0.955063
0.983814
0.999252
0.999533
0.999743
0.999612
0.999655
0.99961
0.999933
0.999944
0.999901
0.998633
0.98508
0.954886
0.946059
0.934066
0.869218
0.842921
0.752163
0.690837
0.951689
0.969331
0.841754
0.915572
0.96992
0.992337
0.995024
0.99526
0.996771
0.997293
0.997111
0.998307
0.99887
0.998525
0.979555
0.895185
0.802577
0.851244
0.949963
0.964506
0.962992
0.729398
0.513129
0.630835
0.71064
0.636379
0.966879
0.999833
0.984767
0.969868
0.97271
0.966112
0.931862
0.976092
0.989366
0.99001
0.983769
0.968357
0.806273
0.519939
0.409432
0.615715
0.800767
0.909604
0.665002
0.396622
0.396262
0.41525
0.768715
0.9845
0.998294
0.831933
0.861071
0.873038
0.800831
0.530848
0.701586
0.852426
0.923991
0.970949
0.794005
0.235988
0.0521277
0.0219856
0.039419
0.124871
0.521244
0.776836
0.802521
0.802731
0.744203
0.82016
0.817813
0.955434
0.260592
0.245746
0.31054
0.271086
0.143474
0.172118
0.34666
0.803083
0.940227
0.477488
0.0237432
0.00167358
0.000661312
0.000533735
0.00707748
0.0972028
0.337059
0.528462
0.603711
0.648294
0.364655
0.30692
0.68226
0.0569526
0.0204622
0.0264388
0.0324465
0.025544
0.0200115
0.127
0.568718
0.728957
0.172956
0.00403277
0.000220811
6.35499e-05
0.000196775
0.000791298
0.00223363
0.00348954
0.0173264
0.0682182
0.177822
0.191604
0.176182
0.273074
0.0865831
0.00294526
0.00145361
0.00297994
0.00338959
0.0103887
0.0661423
0.160126
0.173199
0.0326454
0.000791724
3.58971e-05
1.55516e-05
1.5122e-05
1.11994e-05
4.59828e-05
0.000151522
0.00197881
0.0121893
0.0439165
0.0705469
0.087447
0.138322
0.131405
0.00198749
0.000134354
0.000274618
0.00251613
0.0113837
0.0173139
0.0129998
0.00760982
0.00113876
6.62015e-05
2.19623e-05
2.12456e-05
4.78172e-06
1.26822e-06
1.26822e-06
1.54407e-05
0.00029387
0.00151649
0.00302127
0.00329079
0.00555425
0.0726153
0.206919
0.00128133
8.80345e-05
0.000218385
0.00273884
0.0069092
0.0032502
0.00057099
0.000113311
7.48271e-05
9.60381e-05
0.00014417
3.92564e-05
1.76911e-06
1.2682e-06
1.26822e-06
7.19429e-06
0.000141016
0.000850618
0.00141539
0.00140298
0.00231525
0.0171815
0.246675
0.00133321
8.91074e-05
0.000138712
0.00140202
0.00216563
0.0017073
0.000533331
7.48271e-05
7.60065e-05
0.000247539
0.000213475
2.84775e-05
1.2682e-06
1.26815e-06
1.2682e-06
1.35993e-05
0.000189384
0.00208565
0.00673475
0.0063846
0.00233599
0.0115915
0.187199
0.00181033
8.36039e-05
8.19467e-05
0.000200938
0.000553205
0.00114769
0.000373453
0.00010735
0.000132678
0.000246594
8.51653e-05
1.4747e-06
1.26815e-06
1.26813e-06
2.36353e-06
1.26246e-05
0.000103286
0.00191762
0.0103497
0.012359
0.00554625
0.0069166
0.0650636
0.0020187
8.41485e-05
8.19467e-05
0.000340681
0.00198544
0.00241582
0.000375277
0.000182565
0.000170313
0.00011155
1.26201e-05
5.87468e-06
6.2286e-06
1.62137e-06
3.11627e-06
6.44562e-06
2.44991e-05
0.000559974
0.0050013
0.0122843
0.012359
0.0114529
0.0130155
0.00192824
8.47879e-05
0.000221757
0.00152902
0.00365336
0.00235754
0.000259855
0.0001172
7.15574e-05
3.7756e-05
2.91852e-05
6.40683e-05
6.61475e-05
2.36439e-05
4.12758e-06
9.83908e-07
8.89761e-07
6.54753e-06
0.000215042
0.00210718
0.00816287
0.0116112
0.00304003
0.00131538
0.000313442
0.00162311
0.00365492
0.00367406
0.00179931
0.000182535
5.21558e-05
1.9006e-05
1.85766e-05
2.93799e-05
0.000108778
0.000182058
0.000183647
2.82439e-05
8.14587e-06
9.39384e-07
6.08686e-07
3.57603e-06
3.24341e-05
0.000195641
0.000450379
0.000987646
0.00063029
0.000643355
0.00365492
0.00367406
0.00216323
0.000957586
0.000262264
6.58132e-05
1.85766e-05
1.85766e-05
1.85766e-05
4.391e-05
6.49686e-05
0.000345818
0.000348172
0.000209981
4.29314e-05
6.61415e-07
1.7244e-07
1.14744e-06
5.53849e-06
1.66032e-05
0.000683287
0.000615225
0.000627642
0.00268826
0.00334124
0.000492581
0.000281031
0.000267691
0.000174396
3.65113e-05
3.65587e-05
8.18072e-05
3.68185e-05
3.68735e-05
0.000164435
0.000904736
0.00170952
0.000742121
3.03166e-05
1.51487e-07
5.71413e-08
4.59954e-08
4.32639e-07
0.00127146
0.00398654
0.000939704
0.000850219
0.00124142
4.5141e-05
3.80439e-05
0.000113818
0.000110102
0.000134526
0.000133659
0.000130315
3.82325e-05
3.68185e-05
0.000124398
0.0010764
0.00426114
0.00295172
0.000447566
2.29456e-06
1.16609e-07
1.44567e-08
1.44578e-08
0.00273146
0.00576038
0.00115468
0.000113149
0.000129496
1.10752e-05
1.10752e-05
1.95932e-05
3.91251e-05
0.000117447
0.000119901
4.43075e-05
1.16438e-05
5.69802e-05
0.000760622
0.00363452
0.00442548
0.00443375
0.00128518
2.06341e-05
6.43759e-07
2.14734e-08
3.26787e-10
0.00671559
0.00575961
0.000929279
1.42071e-05
1.10724e-05
1.10712e-05
1.10752e-05
1.10752e-05
1.11967e-05
2.95612e-05
2.96302e-05
1.11555e-05
1.17202e-05
0.00023546
0.00281532
0.00442548
0.00443322
0.00162521
0.000135647
1.58518e-05
1.03616e-06
1.45626e-07
2.03669e-08
0.0284926
0.00406625
0.000393037
1.3582e-05
1.10712e-05
1.10752e-05
1.10752e-05
1.10752e-05
1.37538e-05
1.94723e-05
1.6428e-05
1.1086e-05
1.10859e-05
0.000569862
0.00408975
0.00443375
0.00170255
0.000344388
8.49447e-05
1.46679e-05
2.54702e-06
2.27685e-06
1.94949e-07
0.194733
0.0024035
0.000221393
6.14587e-05
7.07455e-05
7.73564e-05
9.60267e-05
0.000193509
0.000232528
0.000203368
0.000203533
8.46147e-05
8.40919e-05
0.000953326
0.00427027
0.00262908
0.000534225
9.44405e-05
3.10871e-05
2.60241e-05
3.56917e-05
1.26512e-05
5.81974e-07
0.27582
0.00261032
0.000460187
0.000240729
0.000404958
0.000945711
0.00640459
0.00925631
0.00927545
0.00584967
0.00149555
9.14449e-05
0.000192823
0.00365313
0.00426614
0.00168628
0.000303179
6.15578e-05
6.48718e-05
0.000206565
0.000187913
2.4956e-05
1.04891e-06
0.27582
0.00453004
0.000605661
0.00218354
0.00734928
0.00791645
0.0065382
0.00354751
0.00596352
0.00569874
0.00204447
0.00021131
0.00165566
0.00472598
0.0038002
0.000779885
0.000136856
6.20049e-05
0.000202848
0.00034686
0.000344916
2.52548e-05
1.00496e-06
0.201266
0.0114021
0.00184905
0.00818163
0.00932575
0.00505097
0.00105937
0.000211244
0.000463201
0.00130643
0.00160376
0.00284188
0.00472598
0.00476068
0.00235476
0.000304878
0.000148071
0.000168457
0.000205906
0.000346778
0.000205072
1.53308e-05
3.74771e-07
0.0401607
0.0108828
0.00782199
0.00951566
0.00894093
0.0035973
0.000475532
0.000100931
0.000100931
0.000340833
0.00123548
0.00380171
0.00431718
0.00290229
0.000961703
0.000292088
0.000289691
0.000191609
0.000116137
0.000213951
4.60908e-05
2.72026e-06
5.49279e-08
0.00266373
0.00776321
0.00953495
0.00653568
0.00175381
0.000250662
0.000100931
0.000100931
0.000100931
0.000205262
0.000980856
0.00164735
0.00152322
0.000805917
0.000322586
0.000361201
0.000278708
0.000102492
8.75302e-05
7.0008e-05
1.81676e-05
6.08204e-07
6.76443e-09
0.000138107
0.00816759
0.00633023
0.00147879
0.000982357
0.000999477
0.000691723
0.000197879
0.000100931
0.000100931
0.000270868
0.00064415
0.000230536
0.0001092
0.000102655
0.000414354
0.000191928
9.97473e-05
0.00013566
4.72348e-05
5.93181e-06
1.35166e-07
8.54254e-10
0.000125069
0.00412208
0.000716228
0.000705636
0.00170729
0.00284484
0.000741046
0.00014475
0.000100931
0.000223414
0.000824468
0.000407694
1.77045e-05
1.38048e-05
0.000169258
0.000414514
0.000124552
0.00013524
0.000135737
4.6058e-05
4.17353e-06
8.78388e-08
3.89462e-10
0.000130539
0.00137652
0.00014122
0.00149444
0.00304804
0.00304806
0.00139437
0.000305362
0.00028775
0.00112548
0.00113489
0.000290944
7.21107e-06
1.1705e-05
0.000172067
0.000414354
0.000134634
0.000115935
8.50098e-05
2.47782e-05
2.15644e-06
2.6938e-08
8.50048e-11
0.00144628
0.000567578
6.82148e-05
0.00103298
0.00289086
0.00304804
0.00218438
0.000395877
0.000319938
0.000836143
0.000666585
7.41876e-05
5.24334e-06
5.98784e-06
6.6502e-05
0.000222413
8.59004e-05
7.02942e-05
3.51413e-05
4.42902e-06
1.10945e-07
3.45639e-10
5.32997e-11
0.00894726
0.000289613
2.29845e-05
0.000347856
0.00124416
0.00183463
0.00102213
0.000224634
0.000130814
0.000180164
0.000107275
6.23446e-06
5.20562e-06
7.44826e-06
4.6746e-05
4.79916e-05
8.77266e-05
8.49327e-05
2.04577e-05
7.38408e-07
2.53543e-09
7.36545e-12
2.1804e-10
0.0116733
0.000145649
4.82341e-06
2.16449e-05
0.000112404
0.000215309
0.000235656
9.32829e-05
4.6511e-05
0.000111675
0.000100092
3.52573e-05
6.57943e-06
3.58907e-05
0.000260216
0.000166982
8.74667e-05
1.55743e-05
6.91056e-07
4.36453e-09
5.35946e-12
7.4392e-12
1.02274e-08
0.0116733
5.14516e-05
1.19629e-06
1.10595e-06
2.02562e-06
4.08244e-06
8.45989e-06
1.65685e-05
4.68532e-05
0.000184975
0.000344153
0.000343653
0.000293698
0.000349986
0.000384896
0.000381426
0.000168336
2.28318e-05
7.46729e-07
3.46726e-09
4.93053e-12
3.57004e-10
1.68883e-07
0.0076727
2.67049e-05
1.10595e-06
1.10969e-06
1.21141e-06
2.06662e-07
3.71245e-08
4.08115e-07
1.06059e-05
8.3738e-05
0.000161348
0.000140487
0.000184274
0.000249505
0.000252643
0.000112978
9.64832e-06
1.0709e-07
1.07489e-10
4.47411e-11
4.95145e-10
1.24978e-08
9.54433e-07
0.00234197
2.2057e-05
1.22953e-06
4.00442e-06
1.37387e-05
6.97793e-07
1.30639e-08
4.4915e-10
1.93694e-07
6.16033e-06
1.5295e-05
7.61609e-06
1.96316e-05
4.17702e-05
3.6887e-05
1.11297e-05
7.53204e-07
6.88564e-09
2.29412e-11
3.42382e-10
3.64849e-08
2.18693e-07
2.11092e-06
0.000330572
2.29204e-05
9.28956e-06
2.68871e-05
4.89591e-05
1.36236e-06
7.42324e-09
1.30563e-11
6.45549e-11
2.34753e-08
7.52534e-08
1.69382e-08
1.2156e-07
4.77598e-07
3.78106e-07
4.94095e-08
5.1434e-10
6.77225e-13
2.05417e-11
9.82669e-09
4.9751e-07
1.68132e-06
2.27405e-06
3.0486e-05
2.71868e-05
3.96555e-05
0.000199217
4.52053e-05
8.97161e-07
2.3831e-10
4.26739e-12
1.1118e-12
1.13403e-12
4.6063e-12
5.08957e-13
1.235e-11
6.65597e-11
1.0609e-10
7.35875e-12
3.07412e-13
3.02198e-13
5.81214e-11
3.49643e-08
1.39973e-06
3.72679e-06
2.28678e-06
3.02249e-05
3.27515e-05
5.76901e-05
0.000262225
2.97625e-05
1.50336e-07
6.03782e-12
2.09068e-13
1.55855e-14
4.40091e-16
3.36863e-16
1.1798e-15
2.14744e-15
3.9476e-15
4.64898e-15
4.0094e-15
3.53248e-13
8.69964e-12
1.94763e-10
5.02051e-08
9.7169e-07
4.74418e-06
1.96941e-06
3.02755e-05
3.07335e-05
0.000136325
0.000260512
5.82786e-06
1.71334e-09
1.00439e-13
1.56069e-15
1.24187e-16
8.96817e-17
6.72303e-17
4.72783e-17
4.72312e-17
5.10582e-17
5.3592e-16
4.37137e-16
1.79359e-14
5.88939e-11
4.86743e-10
1.03118e-08
8.37612e-07
5.06957e-06
2.41401e-06
3.04059e-05
3.36744e-05
0.000152017
0.000141296
1.61619e-07
8.95715e-11
1.11966e-13
1.25832e-16
7.85235e-17
6.58316e-17
4.54729e-17
3.03258e-17
1.85178e-16
8.47324e-17
6.05829e-14
1.8364e-13
3.00102e-13
1.63352e-10
3.57726e-09
9.95367e-08
2.60496e-06
6.86639e-06
2.83825e-06
3.06151e-05
6.19038e-05
0.00015268
1.39047e-05
1.02745e-08
8.85828e-11
2.78631e-13
1.64546e-16
5.69696e-17
4.39997e-17
2.77878e-17
1.61219e-17
6.80459e-16
1.52517e-15
5.10461e-13
2.02923e-12
2.41811e-12
8.22841e-11
3.88852e-09
1.4189e-07
5.27624e-06
6.87243e-06
3.38251e-06
7.53889e-05
6.16724e-05
6.26157e-05
1.88189e-07
5.85693e-09
2.03794e-12
1.48384e-16
3.07133e-17
3.17851e-17
2.70802e-17
1.70251e-17
9.92566e-18
8.29169e-16
9.0725e-15
6.69641e-13
3.30516e-12
5.09826e-12
1.46727e-10
1.68471e-09
1.38982e-07
4.86333e-06
6.59336e-06
1.25534e-06
0.993895
0.998717
0.999835
0.999826
0.999835
0.999828
0.999835
0.999835
0.999835
0.999599
0.989236
0.898336
0.998748
0.986616
0.910478
0.649418
0.986603
0.951221
0.750676
0.362075
0.879188
0.740113
0.23574
0.0835202
0.656687
0.566681
0.0473785
0.0112148
0.332316
0.3089
0.0138217
0.00613989
0.0892803
0.104057
0.0157057
0.00866995
0.0535158
0.0835091
0.0158101
0.00843854
0.0241222
0.044066
0.0241623
0.00595873
0.00397424
0.00568449
0.0101041
0.00718579
0.0101784
0.00319735
0.00185679
0.00292885
0.000534021
0.000607583
0.00085315
0.00101327
3.21235e-05
4.11443e-05
5.80429e-05
9.01891e-05
1.33942e-06
3.38918e-06
1.11128e-05
2.95213e-05
1.11063e-07
3.39166e-07
5.76469e-07
7.23649e-07
1.72941e-13
1.72941e-13
1.72941e-13
1.72941e-13
1.72941e-13
1.72941e-13
1.72941e-13
1.72941e-13
1.72941e-13
1.72941e-13
1.81605e-13
1.72941e-13
1.72941e-13
1.72941e-13
1.72941e-13
1.72941e-13
1.72941e-13
1.72941e-13
1.72941e-13
1.72941e-13
1.72941e-13
1.72941e-13
1.72941e-13
1.72941e-13
1.72941e-13
1.72941e-13
1.72941e-13
1.72941e-13
1.72941e-13
2.20675e-13
1.74311e-13
1.72941e-13
1.72941e-13
2.49049e-12
4.5626e-13
1.72941e-13
1.72941e-13
1.91713e-11
6.12718e-12
2.06335e-11
1.72941e-13
6.58807e-11
6.17777e-11
6.75004e-10
7.07535e-11
1.87447e-10
8.18285e-10
1.10755e-08
5.38884e-11
6.07752e-10
1.32563e-08
9.81316e-08
7.51035e-10
1.88818e-08
1.54372e-07
3.46792e-07
3.18352e-08
1.93878e-07
5.74784e-07
5.68891e-07
5.11711e-07
1.14536e-06
1.1057e-06
4.30239e-07
1.91325e-06
1.73475e-06
4.69406e-07
3.39587e-08
1.91062e-06
9.63458e-07
2.31822e-07
2.1293e-08
1.21505e-06
2.89108e-07
2.57324e-08
1.15081e-09
5.41343e-07
5.31429e-08
1.47368e-09
8.60087e-11
2.64032e-07
1.30013e-08
1.04786e-10
2.09055e-11
2.76637e-07
3.51456e-09
1.32903e-11
3.96712e-12
1.82506e-07
2.7161e-09
2.76708e-12
1.67692e-14
3.79158e-07
8.13855e-09
8.96001e-12
9.72132e-16
-5.39003e-25
1.71696e-21
4.81221e-21
5.85311e-21
0.994883
0.867882
0.303062
0.0454709
0.0382173
0.0480332
0.0281544
0.0621681
0.40112
0.729028
0.784559
0.635627
0.662028
0.459265
0.235518
0.273817
0.421377
0.86686
0.612359
0.830652
0.169353
0.133476
0.131435
0.0281638
0.0281634
0.0281548
0.0289961
0.262475
0.366648
0.569568
0.110597
0.0843946
0.059934
0.128095
0.0921412
0.0930051
0.485864
0.275266
0.520664
0.20464
0.403481
0.299767
0.034673
0.0281638
0.0281633
0.0606769
0.278965
0.216444
0.0745442
0.0130046
0.016226
0.0540284
0.0911897
0.0918252
0.105428
0.14645
0.438316
0.317033
0.233812
0.418159
0.416434
0.118465
0.0281598
0.0281638
0.0500614
0.210652
0.107521
0.024997
0.0108456
0.010854
0.0176271
0.0139871
0.0149966
0.0274132
0.155844
0.61001
0.117573
0.0682609
0.0407199
0.169841
0.451208
0.451678
0.377472
0.185757
0.0209102
0.0340832
0.0270667
0.0117204
0.00450991
0.00265223
0.00267321
0.00600679
0.0352226
0.186495
0.57585
0.0364474
0.0112209
0.00616152
0.00978642
0.0513345
0.0837898
0.0636923
0.052282
0.00614244
0.00902829
0.0224537
0.016892
0.00413876
0.00109792
0.00325155
0.00814474
0.0145468
0.0474957
0.169937
0.00636533
0.0058329
0.00582931
0.00723636
0.0109077
0.0101611
0.0103873
0.00592178
0.00610969
0.0319234
0.062689
0.0183439
0.00244819
0.000808076
0.00193963
0.000867837
0.0010787
0.00342244
0.00851642
0.00614131
0.0102389
0.0102281
0.00318708
0.00391918
0.0088559
0.0104571
0.00590632
0.0154353
0.0655719
0.0652954
0.0283836
0.00208729
0.000806207
0.000861873
0.000245128
0.000437159
0.00117663
0.0038496
0.00886975
0.00817107
0.00855685
0.00316494
0.00243252
0.00542536
0.00820356
0.0120054
0.0241761
0.0377716
0.0515332
0.0547496
0.0174938
0.00142142
0.000247825
0.000136499
9.62535e-05
0.000330319
0.00264105
0.00630521
0.00425775
0.0046963
0.00256718
0.00244368
0.00382031
0.0103061
0.0116361
0.010727
0.00208049
0.00540724
0.0545007
0.0191699
0.00180159
8.31891e-05
3.13745e-05
4.0046e-05
0.000196802
0.000692938
0.00345667
0.00168618
0.00116422
0.0011797
0.00336871
0.0034634
0.0023906
0.0018156
0.00106688
0.000158952
0.000193116
0.0172149
0.0188169
0.001026
2.94426e-05
1.9211e-05
3.27349e-05
0.00100301
0.000471547
0.00612029
0.00270061
0.00075239
0.000939154
0.00214988
0.000535715
7.66633e-05
0.000122251
2.30447e-05
7.70613e-06
6.82572e-05
0.00347789
0.026056
0.00365675
0.000209467
1.92226e-05
0.000160253
0.00266451
0.00122627
0.00475173
0.00155076
0.000574286
0.000831028
0.000503979
5.0168e-05
4.06361e-06
1.68138e-05
6.42109e-07
9.12057e-07
2.56071e-05
0.00106702
0.0158027
0.00366793
0.00026393
1.9211e-05
0.0011473
0.00478129
0.00192984
0.0010065
0.000464138
0.000321131
0.000353445
6.56834e-05
1.12096e-05
9.38755e-07
5.28609e-07
9.99503e-08
2.76016e-07
6.46442e-06
0.000136849
0.00283959
0.00975644
0.00152112
0.00109124
0.0066415
0.00502568
0.00143723
0.000155312
0.000225658
0.00027271
0.000109439
1.12911e-05
1.26594e-06
3.07985e-07
3.73815e-08
1.14483e-08
1.90459e-07
2.32788e-06
2.28215e-05
0.00104787
0.00835649
0.0118455
0.0119089
0.00882678
0.00311258
0.000733317
9.05958e-05
0.00016321
0.000235777
4.8552e-05
1.86686e-06
5.40246e-08
3.20431e-08
7.52092e-09
7.59936e-09
1.297e-07
8.22599e-07
9.06364e-07
2.23395e-05
0.000359407
0.00103775
0.000733707
5.0045e-05
0.000376915
0.000337341
5.85384e-07
1.38104e-06
1.66575e-05
3.46001e-06
1.13181e-07
1.26351e-09
1.2325e-09
9.81098e-10
2.75515e-09
3.35833e-08
2.96921e-07
1.96122e-07
1.80643e-06
7.73524e-06
8.72299e-06
1.29095e-05
2.54685e-05
9.07367e-05
0.00012687
7.25049e-11
1.99238e-09
5.21231e-08
5.72463e-08
4.93655e-09
3.96466e-10
3.5797e-10
3.564e-10
6.64561e-10
1.20412e-08
1.95776e-07
7.53653e-08
1.22169e-06
8.33455e-06
1.91382e-05
2.69671e-05
2.18047e-05
2.49966e-05
3.14121e-05
6.19815e-11
1.47555e-09
2.12856e-09
2.06314e-07
2.27923e-07
2.02592e-08
1.07878e-08
3.85768e-09
8.75935e-10
6.72306e-09
4.35564e-08
3.73096e-08
2.09478e-06
3.04195e-05
0.000106538
0.000177341
0.000158616
0.000100885
5.82835e-05
3.17324e-10
2.76627e-08
1.94167e-07
2.26701e-06
2.22582e-06
3.42122e-07
1.93191e-07
9.95023e-08
3.91011e-08
5.37607e-09
4.02513e-09
5.07564e-09
1.04374e-06
3.82376e-05
0.000172941
0.000250286
0.000250233
0.000235535
0.000197916
4.97096e-10
7.91069e-08
1.69415e-06
5.64123e-06
5.76823e-06
2.03046e-06
1.00113e-06
6.26693e-07
6.20052e-07
6.34825e-08
9.07353e-10
6.32692e-10
7.1545e-08
1.98826e-05
0.00012282
0.000226242
6.3564e-05
5.01006e-05
0.000139279
7.75948e-10
5.71121e-08
3.07189e-06
5.88652e-06
5.88652e-06
4.82868e-06
1.8909e-06
1.44303e-06
2.05058e-06
7.99376e-07
4.10383e-08
6.43596e-10
1.84065e-08
3.52707e-06
1.25034e-05
9.95902e-05
0.000141588
7.77176e-05
1.01449e-05
1.31052e-09
8.68863e-08
2.06558e-06
5.07171e-06
5.68322e-06
5.06236e-06
1.51883e-06
7.16888e-07
2.52273e-06
3.05977e-06
7.01762e-07
1.84399e-08
8.56267e-09
2.6164e-07
3.58086e-06
5.84785e-05
0.000592637
0.000515595
3.71845e-05
5.83646e-09
1.85564e-07
5.16422e-07
9.26362e-07
1.024e-06
9.37695e-07
2.62329e-07
3.59899e-08
7.16932e-07
5.75992e-06
4.16287e-06
7.28062e-07
1.92816e-08
7.47208e-08
1.73609e-06
9.12174e-05
0.000795769
0.000795769
0.000139223
4.36034e-08
6.07695e-07
3.07014e-07
1.27029e-07
4.81859e-08
4.6428e-08
2.68887e-08
8.18291e-09
1.81432e-07
5.54335e-06
6.46993e-06
2.10694e-06
8.32024e-08
9.89668e-08
1.9302e-05
0.000453296
0.000795769
0.000795769
0.000262931
1.38675e-07
8.07142e-07
4.67013e-07
7.35445e-08
6.14246e-09
1.04243e-09
4.61685e-09
4.71016e-09
1.63651e-08
2.07851e-06
1.90183e-05
1.08518e-05
1.52195e-06
1.509e-07
1.12763e-05
0.000347769
0.000795769
0.000486803
0.0001541
1.92322e-07
8.10967e-07
5.67471e-07
1.10412e-07
3.65536e-09
4.09459e-10
6.61066e-09
5.97706e-09
1.04757e-08
1.24562e-06
2.75219e-05
2.76374e-05
7.30512e-06
3.16466e-07
3.54165e-06
0.000165495
0.000502508
0.000171095
9.87897e-05
2.67445e-07
4.64258e-07
1.65242e-07
3.88836e-08
2.46848e-09
4.08817e-10
1.31092e-08
3.48958e-08
9.88192e-08
9.64472e-07
2.1552e-05
3.93755e-05
9.91351e-06
3.76585e-07
1.87698e-06
5.11963e-05
0.00012488
0.000124155
5.31986e-05
3.98605e-07
1.42262e-07
1.8037e-08
1.60318e-09
1.15042e-10
4.08287e-10
1.79249e-08
1.52204e-07
7.64562e-07
1.76268e-06
4.37611e-06
4.75552e-05
2.49257e-05
3.61436e-06
1.90825e-06
7.5413e-06
8.92339e-05
0.000123978
2.83585e-05
3.98705e-07
9.78734e-08
6.08586e-09
3.36441e-10
8.39842e-11
1.28106e-09
4.06684e-08
9.52992e-07
3.68089e-06
1.38843e-05
6.7049e-05
8.9425e-05
8.35759e-05
2.7409e-05
2.38556e-06
4.55895e-06
0.000149537
0.000157539
2.26281e-05
2.94476e-07
3.78373e-08
1.82001e-09
2.37817e-10
8.31277e-11
3.69044e-09
1.65898e-07
3.4895e-06
9.43239e-06
3.6781e-05
0.00010856
0.000103986
8.43351e-05
2.60611e-05
1.2223e-06
1.62844e-05
0.000156608
0.000168195
2.75693e-05
1.32361e-07
3.54564e-09
6.06076e-10
1.5575e-10
6.08431e-11
9.57399e-09
5.35241e-07
6.32874e-06
1.7052e-05
7.321e-05
0.000124623
8.97729e-05
4.295e-05
1.06707e-05
7.44779e-07
1.18466e-05
9.50536e-05
0.000120409
3.5574e-05
5.29004e-08
7.14293e-10
4.04462e-10
7.21258e-11
3.67392e-11
1.48777e-08
1.16114e-06
7.35387e-06
1.92367e-05
9.1428e-05
0.000124589
0.000117514
9.95501e-06
1.5617e-06
9.7418e-07
0.000132544
0.000275898
0.00014431
2.72446e-05
2.27807e-09
3.08839e-10
1.53823e-10
1.03421e-11
1.70386e-11
1.62966e-08
1.50045e-06
4.95116e-06
8.20931e-06
4.49479e-05
0.000124623
6.38109e-05
9.83001e-06
2.21151e-05
0.000329181
0.00058707
0.000526363
0.000164371
1.44135e-05
1.15784e-09
1.63899e-10
4.49612e-11
1.84994e-12
7.53389e-12
1.63175e-08
6.16838e-07
2.24901e-06
5.7285e-06
2.81236e-05
6.01378e-05
1.3254e-05
1.30172e-05
0.000160354
0.000948988
0.000587127
0.000202559
6.28197e-05
3.82652e-06
2.19888e-10
6.1692e-11
4.97058e-12
7.76089e-14
2.58264e-12
7.98779e-09
2.63457e-07
2.12838e-06
4.1713e-06
2.01272e-06
6.53213e-06
6.39096e-06
2.05372e-05
0.000272554
0.000949188
0.000126362
3.14937e-05
6.26217e-06
4.14199e-07
5.44647e-11
1.42739e-11
7.6594e-13
1.1539e-14
7.62566e-13
3.38588e-10
7.04056e-08
1.86175e-06
3.57657e-06
5.19275e-07
8.83145e-07
9.0379e-06
7.52811e-05
0.000426483
0.000470939
6.78999e-05
1.70086e-06
1.48224e-07
3.75617e-08
1.23847e-11
8.03906e-13
6.82548e-15
3.53982e-15
6.0651e-14
4.66552e-11
2.57761e-08
8.91785e-07
3.0961e-06
5.13997e-07
9.45194e-07
2.33415e-05
0.000213032
0.000556132
0.00030831
4.26219e-05
5.8439e-07
5.20463e-09
6.2642e-09
2.19439e-12
1.32007e-13
1.56326e-15
1.47926e-15
4.89038e-15
1.44015e-11
8.14154e-09
2.00597e-07
9.93328e-07
1.61115e-06
8.72732e-07
1.3269e-05
0.00012314
0.000465149
0.000351121
0.000109978
8.03395e-07
4.44586e-09
4.42372e-09
8.40129e-15
1.44824e-15
2.78167e-16
4.1831e-16
1.00577e-16
3.71237e-13
1.51991e-10
1.03185e-08
1.77824e-07
6.01121e-07
4.72545e-07
1.36874e-06
1.38746e-05
6.56737e-05
0.000195222
0.000258432
1.65988e-05
1.21101e-07
2.66676e-09
1.65878e-16
2.18849e-17
1.39561e-17
4.17904e-17
4.37339e-18
5.48471e-15
2.36297e-12
2.5684e-10
7.49448e-09
4.44427e-08
7.8453e-08
3.9053e-08
2.29024e-07
9.43662e-07
4.39925e-05
0.000242343
1.30451e-05
1.27497e-07
7.838e-10
6.34229e-21
2.58556e-20
4.40139e-20
1.01061e-19
6.68342e-19
1.96302e-18
5.76086e-18
3.81052e-17
7.93964e-16
1.47346e-12
9.0094e-11
1.85928e-10
1.40077e-09
5.71305e-08
9.35734e-06
9.31281e-05
7.60416e-06
2.88817e-08
5.04983e-11
)
;

boundaryField
{
    leftWall
    {
        type            zeroGradient;
    }
    rightWall
    {
        type            zeroGradient;
    }
    lowerWall
    {
        type            zeroGradient;
    }
    atmosphere
    {
        type            inletOutlet;
        inletValue      uniform 0;
        value           nonuniform List<scalar> 
46
(
7.53889e-05
6.16724e-05
6.26157e-05
1.88189e-07
0
0
0
0
0
0
0
0
0
0
0
0
0
1.46727e-10
0
0
4.86333e-06
6.59336e-06
0
0
0
0
0
0
0
0
0
0
0
0
0
0
0
0
0
0
0
9.35734e-06
9.31281e-05
7.60416e-06
2.88817e-08
5.04983e-11
)
;
    }
    defaultFaces
    {
        type            empty;
    }
}


// ************************************************************************* //
