/*--------------------------------*- C++ -*----------------------------------*\
| =========                 |                                                 |
| \\      /  F ield         | foam-extend: Open Source CFD                    |
|  \\    /   O peration     | Version:     4.1                                |
|   \\  /    A nd           | Web:         http://www.foam-extend.org         |
|    \\/     M anipulation  |                                                 |
\*---------------------------------------------------------------------------*/
FoamFile
{
    version     2.0;
    format      ascii;
    class       surfaceScalarField;
    location    "0.9";
    object      phi;
}
// * * * * * * * * * * * * * * * * * * * * * * * * * * * * * * * * * * * * * //

dimensions      [0 3 -1 0 0 0 0];

internalField   nonuniform List<scalar> 
4432
(
-2.06977e-06
2.06977e-06
-3.94566e-06
1.87589e-06
-5.58595e-06
1.64029e-06
-4.97942e-06
-6.06532e-07
-8.22699e-06
3.24757e-06
-1.19199e-05
3.69295e-06
-1.33465e-05
1.42657e-06
-1.37139e-05
3.67413e-07
-1.08353e-05
-2.87865e-06
-1.41997e-05
3.3644e-06
-1.35361e-05
-6.63593e-07
-5.21896e-06
-8.31713e-06
-5.72783e-06
5.0887e-07
-8.85209e-07
-4.84262e-06
3.69193e-06
-4.57714e-06
9.25909e-06
-5.56716e-06
1.24396e-05
-3.18048e-06
1.12741e-05
1.16544e-06
9.83611e-06
1.43803e-06
7.34695e-06
2.48916e-06
4.29652e-06
3.05042e-06
2.94818e-06
1.34835e-06
2.94818e-06
-4.10076e-07
2.47985e-06
-1.0187e-06
2.48451e-06
-2.65781e-06
3.27941e-06
-5.09606e-06
1.83171e-06
-8.00553e-06
6.15704e-06
-1.17537e-05
7.44117e-06
-1.30024e-05
2.67518e-06
-1.20994e-05
-5.35504e-07
-1.84254e-05
3.44734e-06
-1.54995e-05
4.38519e-07
-8.09003e-06
-8.07311e-06
-1.19737e-05
-4.43343e-06
-9.43623e-06
-2.02862e-06
-3.31241e-06
-1.09664e-05
4.93894e-07
-8.38344e-06
3.12232e-06
-8.19559e-06
9.40769e-06
-9.46584e-06
9.3935e-06
1.17963e-06
8.10903e-06
2.72249e-06
6.41501e-06
4.18318e-06
1.97938e-06
7.48605e-06
1.18913e-06
2.1386e-06
4.13731e-06
-1.42861e-06
3.90845e-06
-3.84742e-06
4.90332e-06
-6.974e-06
6.40598e-06
-1.20194e-05
6.8771e-06
-1.71511e-05
1.12888e-05
-1.22054e-05
2.49542e-06
-1.34909e-05
3.96069e-06
-1.31742e-05
-8.52138e-07
-2.42006e-05
1.44737e-05
-1.15383e-05
-1.22237e-05
-1.84921e-05
-1.11937e-06
-1.59435e-05
-6.982e-06
-7.18261e-06
-1.07895e-05
-9.78119e-06
-8.36785e-06
-9.31114e-07
-1.72335e-05
4.75054e-07
-9.60175e-06
4.24229e-06
-1.32331e-05
5.97942e-06
-5.57497e-07
5.70136e-06
3.00055e-06
4.32036e-06
5.56419e-06
2.04668e-06
9.75973e-06
1.65818e-06
2.5271e-06
5.79548e-06
-1.51609e-06
5.42455e-06
-3.70173e-06
7.08895e-06
-3.65738e-06
6.36164e-06
-5.25261e-06
8.47232e-06
-8.67107e-06
1.47072e-05
-1.28155e-05
6.63987e-06
-1.37826e-05
4.92778e-06
-2.75271e-05
1.28924e-05
-1.54131e-05
2.35966e-06
-2.71028e-05
-5.3404e-07
-2.66875e-05
-1.53462e-06
-2.45867e-05
-9.08286e-06
-2.04385e-05
-1.49376e-05
-1.4437e-05
-1.43694e-05
-4.79568e-06
-2.68748e-05
1.06747e-06
-1.54649e-05
2.17936e-06
-1.4345e-05
3.13254e-07
1.30861e-06
7.60991e-07
2.55281e-06
5.79011e-07
5.74617e-06
8.9561e-07
9.44313e-06
1.86729e-06
1.55542e-06
7.66278e-06
-1.54955e-06
6.9741e-06
-2.06023e-06
7.59963e-06
-4.41775e-06
8.71917e-06
-1.03183e-05
1.43729e-05
-9.76297e-06
1.41519e-05
-1.5006e-05
1.18829e-05
-1.5981e-05
5.90276e-06
-1.67231e-05
1.36345e-05
-1.715e-05
2.78658e-06
-3.02175e-05
1.25334e-05
-3.07577e-05
-9.94414e-07
-2.95014e-05
-1.03391e-05
-2.11944e-05
-2.32447e-05
-1.22902e-05
-2.32736e-05
-4.25556e-06
-3.49095e-05
9.52312e-07
-2.06728e-05
2.92212e-06
-1.63148e-05
-2.38898e-06
6.61971e-06
-4.29496e-06
4.4588e-06
-2.74038e-06
4.19159e-06
-2.76241e-06
9.46516e-06
6.48999e-07
-1.85599e-06
8.31177e-06
-9.36182e-07
7.91028e-06
-4.17743e-06
1.08409e-05
-6.97078e-06
1.15125e-05
-1.15945e-05
1.89966e-05
-1.02988e-05
1.28562e-05
-1.4535e-05
1.61191e-05
-1.59315e-05
7.29931e-06
-1.81736e-05
1.58766e-05
-3.58095e-05
2.04225e-05
-3.51103e-05
1.18342e-05
-3.56745e-05
-4.30206e-07
-3.11303e-05
-1.48833e-05
-2.39729e-05
-3.0402e-05
-1.41775e-05
-3.3069e-05
-1.56837e-06
-4.75186e-05
2.16532e-06
-2.44065e-05
2.32606e-08
-1.41727e-05
-5.47338e-06
1.21164e-05
-8.691e-06
7.67641e-06
-9.13483e-06
4.63541e-06
-4.14176e-06
4.47209e-06
-3.19293e-07
-5.67846e-06
7.99248e-06
-6.98058e-07
8.60834e-06
-1.22977e-06
1.13726e-05
-3.08008e-06
1.33628e-05
-5.83675e-06
2.17533e-05
-9.76812e-06
1.67875e-05
-1.67581e-05
2.3109e-05
-3.49259e-05
2.54672e-05
-3.77055e-05
1.86561e-05
-3.77984e-05
2.05154e-05
-3.71067e-05
1.11426e-05
-3.91772e-05
1.64024e-06
-3.55561e-05
-1.85044e-05
-3.01819e-05
-3.57762e-05
-2.81004e-05
-3.51505e-05
-1.37316e-05
-6.18875e-05
1.44085e-06
-3.95789e-05
3.60922e-06
-1.63411e-05
-2.16591e-07
1.59422e-05
-1.05652e-05
1.80251e-05
-1.17512e-05
5.82136e-06
-8.85942e-06
1.58032e-06
7.12457e-07
-1.52503e-05
8.70494e-06
5.25686e-07
8.08265e-06
-2.62647e-06
1.45247e-05
-8.37925e-06
1.91156e-05
-1.66274e-05
3.00015e-05
-2.52348e-05
2.53949e-05
-1.68781e-05
1.47523e-05
-1.71056e-05
2.56946e-05
-3.72329e-05
3.87834e-05
-4.12836e-05
2.4566e-05
-4.45823e-05
1.44413e-05
-4.79546e-05
5.01249e-06
-4.91685e-05
-1.72905e-05
-4.46788e-05
-4.02658e-05
-3.43238e-05
-4.55055e-05
-2.61569e-05
-7.00543e-05
-9.88282e-06
-5.5853e-05
5.16649e-06
-3.13904e-05
2.09343e-06
1.90152e-05
-1.15166e-05
3.16351e-05
-1.42996e-05
8.60439e-06
-1.03477e-05
-2.37165e-06
3.65733e-06
-2.92553e-05
1.23623e-05
-5.28181e-05
5.28181e-05
-6.56848e-05
1.28667e-05
-5.15071e-05
-1.41777e-05
-2.66577e-05
-2.48494e-05
-2.3794e-05
-2.86376e-06
-3.68397e-05
1.30457e-05
-4.85888e-05
1.17491e-05
-5.50919e-05
6.50311e-06
-5.51773e-05
8.54238e-08
-4.06493e-05
-1.4528e-05
-1.94296e-05
-2.12197e-05
-7.75383e-06
-1.16758e-05
-7.23427e-07
-7.03041e-06
1.58676e-06
-2.31019e-06
1.3128e-05
-1.15413e-05
1.87494e-05
-5.6214e-06
1.36189e-05
5.13049e-06
3.24852e-06
1.03704e-05
3.24852e-06
-3.98251e-05
9.26432e-05
-4.87555e-05
2.17971e-05
-2.58639e-05
-3.70693e-05
1.39732e-05
-6.46864e-05
2.13061e-05
-1.01967e-05
6.70804e-06
2.76438e-05
-6.92259e-06
2.53797e-05
-3.45712e-05
3.41518e-05
-3.68373e-05
2.3515e-06
-1.47336e-05
-3.66317e-05
6.49555e-06
-4.24489e-05
1.09587e-05
-1.61389e-05
2.8365e-05
-2.44367e-05
2.81674e-05
-2.11258e-06
1.97933e-05
-3.16723e-06
4.06114e-05
-2.64395e-05
1.13459e-05
3.4396e-05
8.06952e-08
2.16356e-05
3.32922e-06
-8.86099e-06
0.000101504
-1.76644e-05
3.06006e-05
-1.16025e-06
-5.35735e-05
2.22546e-05
-8.81013e-05
2.93877e-05
-1.73297e-05
1.42381e-05
4.27933e-05
4.10112e-06
3.55167e-05
-9.77151e-06
4.80244e-05
-1.42705e-05
6.85047e-06
-5.72583e-07
-5.03295e-05
1.23619e-05
-5.53834e-05
2.26917e-05
-2.64687e-05
1.83245e-05
-2.00695e-05
4.30188e-05
-2.68068e-05
4.81128e-05
-8.26122e-06
2.61944e-05
-4.52114e-06
2.39664e-05
3.6624e-05
5.2606e-06
4.03414e-05
8.58982e-06
9.62372e-06
9.18804e-05
2.50131e-05
1.52112e-05
2.14547e-05
-5.00151e-05
2.72354e-05
-9.3882e-05
2.69129e-05
-1.70072e-05
2.06068e-05
4.90994e-05
9.86359e-06
4.62598e-05
-3.02852e-06
6.09165e-05
-6.00549e-06
9.82744e-06
-4.40889e-06
-5.19261e-05
8.12783e-06
-6.79201e-05
1.43505e-05
-3.26914e-05
3.40752e-05
-3.97942e-05
3.54802e-05
-2.82119e-05
4.24697e-05
-1.52507e-05
2.54446e-05
1.2504e-05
3.32189e-05
2.88498e-05
2.27526e-05
5.08077e-05
3.13424e-05
2.06091e-05
7.12713e-05
2.37551e-05
1.20651e-05
4.05867e-05
-6.68467e-05
3.61851e-05
-8.94804e-05
2.97656e-05
-1.05877e-05
2.9335e-05
4.95301e-05
8.58586e-06
6.7009e-05
-1.3229e-05
8.27313e-05
-3.54427e-05
3.20412e-05
-9.2164e-06
-7.81525e-05
2.02894e-05
-9.74259e-05
3.51007e-05
-4.75027e-05
3.57658e-05
-4.04594e-05
3.73106e-05
-2.97566e-05
4.13774e-05
-1.93175e-05
2.6367e-05
2.75144e-05
2.17935e-05
3.34233e-05
2.90485e-05
4.35527e-05
6.03909e-05
2.32594e-05
4.80119e-05
2.46183e-05
1.07063e-05
4.88371e-05
-9.10655e-05
4.43643e-05
-8.50075e-05
3.3892e-05
-1.15419e-07
2.22461e-05
6.1176e-05
9.27875e-06
7.99763e-05
-2.7708e-05
0.000119718
-5.00569e-05
5.439e-05
-3.01196e-06
-0.000125197
1.38984e-05
-0.000114336
3.40096e-05
-6.76138e-05
4.5363e-05
-5.18127e-05
4.40635e-05
-2.84572e-05
4.04602e-05
-1.57142e-05
2.43229e-05
4.36516e-05
4.47537e-05
1.29925e-05
3.99135e-05
4.83929e-05
0.000100304
1.79299e-05
3.0082e-05
3.39264e-05
-5.29019e-06
4.68554e-05
-0.000103995
2.17085e-05
-5.98606e-05
8.76683e-06
1.28262e-05
2.92649e-05
4.0678e-05
-9.73924e-06
0.00011898
-4.36944e-05
0.000153673
-1.96541e-05
3.03498e-05
4.46845e-06
-0.00014932
1.02399e-06
-0.000110892
8.91341e-06
-7.55033e-05
4.60567e-05
-8.89561e-05
5.44212e-05
-3.68216e-05
4.49329e-05
-6.2259e-06
4.06289e-05
4.79556e-05
2.12711e-05
3.23504e-05
2.15888e-05
4.80752e-05
0.000121893
9.65838e-06
2.04236e-05
3.10565e-05
-2.66883e-05
1.30609e-05
-8.5999e-05
2.87565e-05
-7.55562e-05
1.37646e-05
2.78182e-05
-2.65291e-06
5.70955e-05
-5.06393e-05
0.000166967
-7.82522e-05
0.000181286
-1.92324e-05
-2.867e-05
1.25706e-06
-0.000169809
4.64897e-06
-0.000114284
2.28487e-05
-9.37029e-05
2.39135e-05
-9.00209e-05
2.57379e-05
-3.8646e-05
1.90388e-05
4.7318e-07
3.04808e-05
3.65136e-05
3.15877e-05
3.12435e-05
1.8615e-05
6.10479e-05
0.000140508
6.60762e-06
1.47503e-06
6.19227e-06
1.49401e-05
-6.12121e-06
3.14291e-05
-2.13197e-05
4.52e-05
-4.74237e-05
5.14989e-05
-6.15622e-05
2.88909e-05
-8.21605e-05
4.62929e-05
-8.72217e-05
4.38446e-05
-0.000101125
3.84696e-05
-0.000102339
1.56551e-05
-0.000120115
2.27887e-05
-0.000139256
1.84985e-06
-0.000132804
-4.67175e-05
-0.000104577
-7.37328e-05
-9.98549e-05
-7.4776e-05
-3.21124e-05
-0.000123595
-6.59507e-06
-5.69078e-05
2.19108e-06
1.02291e-05
-2.08816e-05
5.47077e-05
-3.35143e-05
2.12371e-05
-1.38085e-05
-2.20775e-05
9.49099e-06
-5.25548e-05
-2.5743e-05
4.75963e-05
2.78685e-06
-1.31182e-06
-3.55354e-06
2.12805e-05
-1.12409e-06
2.89997e-05
-1.42684e-05
5.83442e-05
-2.98397e-05
6.70702e-05
-7.05126e-05
6.95637e-05
-7.93253e-05
5.51057e-05
-9.50587e-05
5.9578e-05
-0.000111059
5.44703e-05
-0.000115219
1.98147e-05
-0.00013691
4.44798e-05
-0.000147259
1.21987e-05
-0.000157228
-3.6749e-05
-0.000165721
-6.52392e-05
-0.000102793
-0.000137705
-0.000155058
-7.13301e-05
-8.66792e-05
-0.000125287
-7.61851e-05
-2.6503e-07
-4.14915e-05
2.00142e-05
-2.46548e-05
4.40034e-06
-1.88625e-05
-2.78697e-05
-3.40772e-05
-3.73401e-05
-4.58952e-05
-1.3925e-05
1.9475e-05
-2.07868e-05
3.10992e-05
9.65632e-06
1.22243e-06
5.88764e-05
-1.7586e-05
7.71527e-05
-1.84409e-05
6.79251e-05
-3.89416e-05
9.00645e-05
-8.45757e-05
0.00010074
-0.000113226
8.8228e-05
-8.66296e-05
2.78742e-05
-0.000137618
7.08029e-05
-0.000155641
6.25035e-05
-0.000187239
4.37967e-05
-0.000210095
-1.38935e-05
-0.000209722
-6.56123e-05
-0.000227599
-0.000119827
-0.000182887
-0.000116042
-0.000179804
-0.000128369
-0.000141357
-3.87123e-05
-6.79307e-05
-5.34118e-05
-3.74243e-05
-2.61061e-05
-3.38378e-05
-3.14561e-05
-2.11133e-05
-5.00646e-05
-4.00255e-05
-2.69831e-05
2.46441e-05
-4.54309e-05
3.031e-05
3.99041e-06
3.60349e-05
5.31514e-05
1.25936e-05
0.000100594
-1.12523e-05
9.1771e-05
-3.32505e-05
0.000112063
-4.08212e-05
0.000108311
-6.54626e-05
0.000112869
-0.000134315
9.67266e-05
-0.000144612
8.11004e-05
-0.000151152
6.90428e-05
-0.000193095
8.57401e-05
-0.000245172
3.81835e-05
-0.000237725
-7.30598e-05
-0.000134372
-0.00022318
-0.000124287
-0.000126128
-0.000162194
-9.04622e-05
-0.000107879
-9.30271e-05
-7.31862e-05
-8.81045e-05
-3.65712e-05
-6.27211e-05
-2.42562e-05
-4.37711e-05
-3.54665e-05
-3.88544e-05
-2.04383e-05
-5.50537e-05
1.63771e-05
-6.1808e-05
2.85658e-05
-8.19823e-06
3.18338e-05
4.98835e-05
2.78122e-05
0.000104616
-2.18997e-05
0.000141483
-5.97538e-05
0.000149917
-9.65411e-05
0.000145098
-0.000127019
0.000143347
-0.000149411
0.000119119
-0.000141394
7.30836e-05
-0.000112006
3.96546e-05
-0.000105611
7.93451e-05
-0.000120644
5.32159e-05
-0.000111941
-8.17626e-05
-0.00015503
-0.000180091
-0.000212912
-6.82463e-05
-0.000206268
-9.71063e-05
-0.00016586
-0.000133435
-0.000106872
-0.000147092
-4.56541e-05
-0.000123939
-2.19694e-05
-6.74558e-05
-2.71993e-05
-3.36245e-05
-4.59503e-06
-4.30425e-05
-3.78134e-05
-2.39946e-05
-2.63536e-05
-1.96581e-05
-2.05738e-06
2.55873e-05
-3.13587e-05
0.000133917
-7.48852e-05
0.000185009
-0.000132891
0.000207922
-0.000161076
0.000173283
-0.000164243
0.000146515
-0.000156203
0.000111079
-0.000138354
5.52341e-05
-0.000126325
2.76263e-05
-0.000139036
9.20555e-05
-0.000152569
6.67489e-05
-0.000178097
-5.62346e-05
-0.000249645
-0.000108543
-0.000242215
-7.56763e-05
-0.00014877
-0.000190552
-0.000111805
-0.000170399
-7.04996e-05
-0.000188398
-8.64191e-05
-0.00010802
-6.73646e-05
-8.65103e-05
-3.766e-05
-6.3329e-05
-2.08097e-05
-2.14453e-05
-1.32613e-05
-1.07333e-05
-7.746e-05
4.45406e-05
-0.000138851
8.69783e-05
-0.00019215
0.000187216
-0.000218582
0.000211442
-0.000249326
0.000238665
-0.00018117
0.000105127
-0.000163271
0.000128616
-0.000144102
9.19094e-05
-0.000126102
3.72345e-05
-0.000157116
5.86397e-05
-0.000165276
0.000100215
-0.000129669
3.11421e-05
-0.000146917
-3.89859e-05
-0.000173776
-8.16836e-05
-0.000172227
-7.72258e-05
-0.000191442
-0.000171336
-0.000184316
-0.000177525
-0.00015461
-0.000218104
-0.000116482
-0.000146148
-5.04249e-05
-0.000152567
-5.78493e-06
-0.000107969
-2.61763e-06
-2.3977e-05
-1.9085e-05
8.35168e-06
-8.02447e-05
0.0001057
-0.000101943
0.000108676
-0.000179487
0.00026476
-0.000239924
0.000271879
-0.000222268
0.00022101
-0.000195001
7.78601e-05
-0.000168446
0.000102061
-0.000161945
8.54077e-05
-0.000189896
6.51856e-05
-0.000217268
8.6012e-05
-0.0001848
6.77475e-05
-0.0001629
9.2423e-06
-0.000163549
-3.83369e-05
-0.00016111
-8.41234e-05
-0.000142413
-9.59222e-05
-0.000130203
-0.000183546
-0.000113893
-0.000193835
-0.000110369
-0.000221628
-4.55411e-05
-0.000210976
-3.27291e-05
-0.000165379
-2.69581e-05
-0.00011374
3.39626e-05
-6.35383e-05
-3.05512e-05
3.89029e-05
-8.24751e-05
0.000157624
-0.000134341
0.000160542
-0.000179212
0.000309631
-0.000203094
0.000295761
-0.000195744
0.00021366
-0.000212609
9.47251e-05
-0.000197717
8.71693e-05
-0.000226804
0.000114495
-0.000261201
9.95821e-05
-0.000255722
8.0533e-05
-0.000225423
3.74484e-05
-0.000227166
1.09851e-05
-0.000232651
-3.28512e-05
-0.000218188
-9.85866e-05
-0.000152069
-0.000162042
-0.000118713
-0.000216901
-9.03391e-05
-0.00022221
-7.9562e-05
-0.000232405
-7.82335e-05
-0.000212305
-6.05878e-05
-0.000183025
-4.28591e-05
-0.000131469
5.94767e-05
-6.83732e-05
-2.49999e-05
6.39028e-05
-6.15708e-05
0.000194195
-0.000100745
0.000199716
-0.000120125
0.000329012
-0.000136222
0.000311858
-0.000126808
0.000204245
-0.000157508
0.000125426
-0.000196783
0.000126444
-0.000252721
0.000170432
-0.000252111
9.89721e-05
-0.000244549
7.29712e-05
-0.000268785
6.1685e-05
-0.000262464
4.66392e-06
-0.000242905
-5.24102e-05
-0.000270297
-7.11949e-05
-0.00023731
-0.000195029
-0.000183159
-0.000271052
-0.000143545
-0.000261824
-0.000123719
-0.000252231
-9.51701e-05
-0.000240853
-0.000176589
-0.000101607
-0.000204782
-0.000103276
1.56246e-05
-0.00016093
-8.53316e-06
7.24359e-05
-2.10691e-05
0.000206731
-0.000101494
0.000280141
-8.66736e-05
0.000314192
-7.33341e-05
0.000298518
-8.25825e-05
0.000213494
-0.000153222
0.000196065
-0.00016667
0.000139891
-0.00023195
0.000235713
-0.000264574
0.000131596
-0.00027533
8.37272e-05
-0.000346257
0.000132611
-0.000325853
-1.57402e-05
-0.000292227
-8.60358e-05
-0.000174431
-0.000188991
-0.000156874
-0.000212585
-0.000181728
-0.000246198
-0.000160462
-0.00028309
-9.63742e-05
-0.000316319
-0.000204078
-0.000133149
-0.000212353
-9.33317e-05
-0.000255204
-6.04255e-05
-2.52407e-05
-0.000214338
-1.45209e-05
8.69568e-05
-4.61735e-05
0.000238384
-8.11903e-05
0.000315158
-7.80274e-05
0.000311029
-7.50896e-05
0.000295581
-3.21492e-05
0.000170553
-7.45014e-05
0.000238418
-0.000252843
0.000318233
-0.000293682
0.000276552
-0.000372123
0.000210038
-0.000378488
9.00916e-05
-0.000264125
1.82486e-05
-0.00020879
-7.10746e-05
-0.000185166
-0.00010966
-0.000294031
-8.01264e-05
-0.000279959
-0.000226658
-0.000253455
-0.000272702
-0.000233732
-0.000302813
-0.000227832
-0.000322219
-0.000197794
-0.000163188
-0.000184082
-0.000107043
-0.000115275
-0.000129233
-1.76282e-05
-0.000122887
-3.64319e-05
0.000123389
-7.23853e-05
0.000274337
-8.49918e-05
0.000327764
-6.54615e-05
0.000291499
-6.60572e-05
0.000296176
-0.000123769
0.000228265
-0.000173505
0.000288154
-0.000244669
0.000389397
-0.000298795
0.000330678
-0.000303407
0.00021465
-0.000336856
0.00012354
-0.000333844
1.52373e-05
-0.000286019
-0.0001189
-0.000277659
-0.000118021
-0.000181465
-0.00017632
-0.000295841
-0.000112281
-0.000278853
-0.00028969
-0.000263246
-0.00031842
-0.000272857
-0.000312609
-0.000283833
-0.000152211
-0.000203685
-0.000187191
-0.00017163
-0.000161288
-0.00010549
-8.37686e-05
-4.43426e-05
0.000167731
-5.87893e-05
0.000288784
-0.000119159
0.000388134
-4.205e-05
0.000214389
-8.81631e-05
0.000342289
-5.71579e-05
0.00019726
-0.000166584
0.00039758
-0.000222878
0.00044569
-0.00026627
0.00037407
-0.000281562
0.000229942
-0.000196633
3.86108e-05
-0.000191964
1.05686e-05
-0.000215896
-9.49679e-05
-0.0002069
-0.000127016
-0.000239511
-0.000143709
-0.000160568
-0.000191225
-0.000155342
-0.000294917
-0.000249819
-0.000223943
-0.0002501
-0.000312327
-0.000157269
-0.000245042
-0.000147331
-0.00019713
-0.000211532
-9.7087e-05
-0.000114758
-0.000202263
-2.49522e-05
0.000192684
-3.93091e-05
0.000303141
-4.68098e-05
0.000395635
-6.87849e-05
0.000236364
-5.50542e-05
0.000328559
-6.37255e-05
0.000205931
-8.60827e-05
0.000419938
-0.000109068
0.000468675
-0.00017633
0.000441333
-0.000149081
0.000202693
-0.000207691
9.72204e-05
-0.00017381
-2.33127e-05
-8.15698e-05
-0.000187208
1.00569e-05
-0.000218643
-2.79718e-05
-0.000105681
-0.000100215
-0.000118981
-0.000194848
-0.000200284
-0.000157192
-0.000261599
-0.000165151
-0.000304368
-0.000188714
-0.000221479
-0.000263479
-0.000122365
-0.000211588
-0.000148978
-8.85853e-05
-0.000237761
-1.18808e-06
0.000193872
-8.5953e-06
0.000310549
-1.12703e-05
0.000398311
-8.69493e-05
0.000312043
-8.05735e-05
0.000322183
-8.67872e-05
0.000212145
-5.67354e-05
0.000389886
-5.16338e-05
0.000463573
-1.83722e-05
0.000408071
-4.07713e-05
0.000225093
-4.4073e-05
0.000100522
-3.30995e-05
-3.42862e-05
8.31616e-06
-0.000228623
5.30309e-05
-0.000263358
0.00010998
-0.00016263
7.17482e-05
-8.07496e-05
2.11865e-05
-0.000149723
-2.99126e-05
-0.000210499
-9.8822e-05
-0.000235459
-0.000156511
-0.000163791
-0.000168309
-0.000110566
-0.00016154
-0.000155747
-9.26408e-05
-0.000157484
1.9444e-05
0.000174428
4.17062e-06
0.000325822
-1.36815e-05
0.000416163
-5.66061e-05
0.000354968
-4.47167e-05
0.000310294
-4.55905e-05
0.000213018
-1.6857e-05
0.000361152
-1.06227e-05
0.000457339
0.000129049
0.0002684
0.000148215
0.000205926
0.000132023
0.000116714
0.000143303
-4.55671e-05
8.69673e-05
-0.000172287
0.000160714
-0.000337104
0.000175557
-0.000177473
0.000162274
-6.74663e-05
0.000142019
-0.000129468
8.30134e-05
-0.000151494
-1.09303e-06
-0.000151353
-6.27914e-05
-0.000102093
-9.40832e-05
-7.92744e-05
-0.000117565
-0.000132265
-0.000113232
-9.69733e-05
2.42936e-05
0.000150134
-3.19032e-06
0.000353306
-2.21387e-05
0.000435111
-6.22825e-05
0.000395112
-1.31627e-05
0.000261174
-3.09276e-05
0.000230783
1.84817e-05
0.000311743
0.000194068
0.000281753
0.000237268
0.000225199
0.000265938
0.000177256
0.000231818
0.000150835
0.000227165
-4.09141e-05
0.000312367
-0.00025749
0.000188789
-0.000213525
0.000246119
-0.000234803
0.000389795
-0.000211142
0.000331076
-7.07487e-05
0.000223312
-4.37299e-05
6.64288e-05
5.53001e-06
-5.04454e-05
1.47816e-05
-6.37446e-05
-6.59752e-05
-8.28656e-05
-0.000113144
-0.000109132
-8.69661e-05
-4.89565e-06
0.00015503
-3.39751e-05
0.000382385
-1.58935e-05
0.000417029
9.87254e-08
0.00037912
2.33004e-05
0.000237972
4.45321e-05
0.000209552
0.00012513
0.000231146
0.000209317
0.000197566
0.000263566
0.00017095
0.00025369
0.000187131
0.0003284
7.61247e-05
0.000307173
-1.96871e-05
0.000194816
-0.000145134
0.00022674
-0.00024545
0.00019741
-0.000205473
0.000126073
-0.000139806
0.000115661
-6.0336e-05
-9.98216e-06
8.1913e-05
-4.46759e-05
4.02238e-05
-7.76426e-05
4.77483e-05
-7.84193e-05
-6.51984e-05
-5.28067e-05
-0.000138757
-9.1577e-05
-7.03616e-05
-4.7749e-05
0.000202779
-7.10341e-05
0.000405671
-1.56596e-05
0.000361655
5.14279e-05
0.000312032
0.00010538
0.00018402
0.000169972
0.00014496
0.000178213
0.000222905
0.000281603
9.41759e-05
0.000370335
8.22187e-05
0.000443614
0.000113852
0.00047965
4.00883e-05
0.000443013
1.69504e-05
0.000361337
-6.3458e-05
0.000159008
-4.31205e-05
9.83924e-05
-0.000144857
2.36863e-05
-6.50994e-05
-7.94677e-05
4.2818e-05
-0.000112029
0.000114474
-0.000129777
5.79714e-05
-7.97709e-05
-2.25744e-06
-6.15145e-05
-8.34548e-05
-5.90819e-05
-0.000141189
-0.000112407
-3.8252e-05
-4.42446e-05
0.000247024
-9.27678e-05
0.000454194
-2.96064e-05
0.000298494
0.000130016
0.00015241
0.000194522
0.000119515
0.000213587
0.000125895
0.000411532
2.49598e-05
0.000474462
3.12458e-05
0.000497911
5.87692e-05
0.000520264
9.14993e-05
0.000496268
6.40847e-05
0.0004451
6.81183e-05
0.000332446
4.91959e-05
0.000258661
3.06648e-05
0.000127301
-1.34969e-05
2.25563e-07
6.19756e-05
-0.00010095
0.000143993
-0.00013284
0.000146365
-0.000163406
8.85373e-05
-0.000123654
-4.20092e-05
-0.000102522
-0.000104587
-0.000102002
-0.000141709
-0.000177895
-3.65141e-05
-1.53774e-05
0.000262401
-1.87224e-05
0.000457539
6.62409e-05
0.00021353
0.000154683
6.39672e-05
0.000204748
6.94501e-05
0.00028246
4.81826e-05
0.000267843
3.95766e-05
0.000275496
2.35927e-05
0.000308074
2.61919e-05
0.000345189
5.43844e-05
0.000335129
7.41441e-05
0.000291251
0.000111996
0.000228719
0.000111728
0.000200336
5.90475e-05
0.000126057
6.07824e-05
-2.26347e-06
0.000190296
-0.000140076
0.000281806
-0.000156582
0.000162871
-0.000174221
0.000106176
-0.000126297
-8.99331e-05
-7.3374e-05
-0.000157509
-4.10831e-05
-0.000174
-0.000193073
-2.59042e-05
-2.28449e-06
0.000264685
4.6352e-05
0.000408902
0.000112474
0.000147408
0.000121365
5.50763e-05
0.000148694
4.21214e-05
0.000215649
-1.87729e-05
0.000225714
2.95117e-05
0.000224015
2.52921e-05
0.000231645
1.85617e-05
0.000240249
4.578e-05
0.000239613
7.47799e-05
0.000218991
0.000132618
0.000204586
0.000126133
0.000168498
9.51346e-05
6.79079e-05
0.000161373
-6.03752e-05
0.000318579
-6.83918e-05
0.000289823
-0.000110634
0.000205113
-8.69216e-05
8.24632e-05
-4.1202e-05
-0.000135653
-8.06321e-05
-0.000118079
-3.71598e-05
-0.000217473
-0.000219109
-1.11238e-05
4.48861e-06
0.000260197
7.48977e-05
0.000338493
0.000143497
7.88089e-05
9.90499e-05
9.95236e-05
0.000126143
1.5028e-05
0.000141434
-3.40639e-05
0.000214777
-4.38308e-05
0.000226453
1.36155e-05
0.000224959
2.00561e-05
0.000211485
5.92535e-05
0.000219757
6.65078e-05
0.000206747
0.000145629
0.000190267
0.000142613
0.000125176
0.000160225
-1.65267e-05
0.000303076
-0.000140687
0.00044274
-5.12183e-05
0.000200354
-8.36614e-05
0.000237556
-6.11472e-05
5.9949e-05
-3.32161e-05
-0.000163584
-3.70235e-05
-0.000114272
-1.94141e-05
-0.000235082
-0.000232229
-6.29499e-06
-5.58432e-06
0.000265781
0.000121667
0.000211242
0.000145953
5.45231e-05
0.000196819
4.86578e-05
0.000265318
-5.34709e-05
0.000282676
-5.1422e-05
0.000281405
-4.25607e-05
0.000275076
1.99444e-05
0.000228722
6.64104e-05
0.000199885
8.80904e-05
0.00017263
9.37627e-05
0.000161461
0.000156798
0.000145415
0.000158659
6.63773e-05
0.000239264
-5.22562e-05
0.00042171
-8.92051e-05
0.000479688
-0.000100728
0.000211877
8.81087e-06
0.000128017
1.25943e-05
5.61655e-05
-4.36357e-05
-0.000107354
3.49475e-06
-0.000161402
7.44138e-06
-0.000239029
-0.000231079
6.29225e-06
-4.61874e-05
0.000311968
7.31659e-05
9.18887e-05
8.1077e-05
4.6612e-05
0.000174728
-4.49938e-05
0.000321321
-0.000200063
0.000344539
-7.46399e-05
0.000324647
-2.2669e-05
0.000280402
6.41896e-05
0.000178067
0.000168745
0.000161531
0.000104626
5.90254e-05
0.000196268
9.92378e-05
0.000116586
5.36224e-05
0.000204274
-1.98213e-05
0.000312707
-7.16254e-05
0.000473514
-0.000104699
0.000512761
-7.935e-05
0.000186528
-9.22446e-05
0.000140912
-1.28748e-05
-2.32043e-05
6.41448e-05
-0.000184374
2.72424e-05
-0.0001245
4.481e-05
-0.000256596
-0.000238069
5.17999e-05
-7.83295e-06
0.000319801
4.51234e-05
3.89324e-05
0.00014654
-5.48044e-05
0.000259868
-0.000158322
0.000264351
-0.000204547
0.00027162
-8.19082e-05
0.00022203
2.69201e-05
0.000191741
9.44786e-05
0.000103746
0.00025674
5.78834e-05
0.000150489
4.07641e-05
0.000213387
2.31459e-05
0.000134204
7.72981e-06
0.00021969
-5.99072e-05
0.000380344
-5.58863e-05
0.000469492
-5.17799e-05
0.000508655
-7.267e-06
0.000142015
3.30244e-05
0.00010062
6.60996e-05
-5.62796e-05
4.12528e-05
-0.000159527
4.44783e-05
-0.000127725
4.02889e-05
-0.000252407
-0.000231557
3.37767e-05
5.42768e-05
0.000265524
4.3041e-05
5.01683e-05
7.56019e-05
-8.73654e-05
9.64983e-05
-0.000179218
1.87318e-05
-0.00012678
-3.68283e-05
-2.6348e-05
-5.4837e-05
4.49287e-05
-3.09359e-05
7.05775e-05
2.17301e-05
0.000204074
-1.17353e-05
0.000183955
-9.63342e-06
0.000211285
-6.76328e-05
0.000192203
-8.48258e-05
0.000236883
-7.49282e-05
0.000370447
-5.4697e-05
0.000449261
-8.6266e-06
0.000462585
6.78938e-06
0.000126599
5.2173e-05
5.52366e-05
5.58453e-05
-5.9952e-05
5.18813e-05
-0.000155563
0.000112533
-0.000188376
9.46266e-05
-0.000234501
-0.000221031
8.41e-05
6.64451e-05
0.000199079
3.22549e-05
8.43584e-05
-5.6807e-06
-4.94299e-05
-0.000120788
-6.41114e-05
-0.000167648
-7.99202e-05
-0.000193724
-2.71398e-07
-0.000208865
6.00693e-05
-0.000176889
3.86013e-05
-0.000129564
0.000156748
-5.78272e-05
0.000112218
-5.25807e-05
0.000206039
-5.13944e-05
0.000191016
-0.000101036
0.000286525
-7.80814e-05
0.000347492
-1.9262e-05
0.000390442
4.8591e-05
0.000394732
9.61363e-05
7.90539e-05
0.00012447
2.69029e-05
0.000151854
-8.73363e-05
0.000153964
-0.000157672
0.000105127
-0.00013954
0.000110695
-0.000240069
-0.000140796
3.04608e-05
2.00506e-05
0.000179029
-2.61823e-05
0.000130591
-0.000132651
5.70386e-05
-0.000180312
-1.645e-05
-0.000240803
-1.94293e-05
-0.000241644
5.69272e-07
-0.000226547
4.49726e-05
-0.000234832
4.68863e-05
-0.000200545
0.000122461
-0.000229483
0.000141156
-0.000146821
0.000123377
-7.32624e-05
0.000117458
-9.63092e-05
0.000309571
-9.92256e-05
0.000350408
6.17159e-05
0.0002295
0.000134568
0.000321879
0.000138594
7.50277e-05
0.000141718
2.3779e-05
0.000150218
-9.58366e-05
0.000152037
-0.000159491
0.000142899
-0.000130402
4.49851e-05
-0.000142155
-0.000189712
9.39011e-05
-4.45485e-06
0.000183484
-2.03991e-05
0.000146536
-0.000150904
0.000187543
-0.000203949
3.65954e-05
-0.000239568
1.61895e-05
-0.000241241
2.2417e-06
-0.000232245
3.5977e-05
-0.000237092
5.17338e-05
-0.000213693
9.9062e-05
-0.000207128
0.000134592
-0.000179873
9.61214e-05
-0.000163159
0.000100743
-0.000105172
0.000251585
-5.08311e-05
0.000296067
1.39531e-05
0.000164716
0.000122056
0.000213777
0.000135824
6.12601e-05
0.000158129
1.474e-06
0.000161674
-9.93819e-05
0.000142859
-0.000140676
0.000106529
-9.40723e-05
0.000112262
-0.000147888
-0.000135214
5.77645e-05
-1.59379e-05
0.000199422
-5.93302e-05
0.000189928
-0.000102774
0.000230987
-0.000167317
0.000101139
-0.000189826
3.86987e-05
-0.0002244
3.68155e-05
-0.00021754
2.91167e-05
-0.000225743
5.9937e-05
-0.000176061
4.93805e-05
-0.000116138
7.46678e-05
-0.000172137
0.00015212
-0.0001602
8.88062e-05
-9.99349e-05
0.00019132
-4.68368e-05
0.000242969
-3.82912e-05
0.000156171
7.00384e-05
0.000105447
0.000121741
9.55781e-06
0.000201319
-7.8104e-05
0.000156013
-5.40763e-05
0.000134742
-0.000119406
0.000149066
-0.000108396
0.000122485
-0.000121306
-0.0001205
0.00010777
-4.32515e-05
0.000242673
-0.000106969
0.000253645
-6.19221e-05
0.00018594
-0.000133691
0.000172907
-0.000175945
8.09532e-05
-0.000180212
4.10817e-05
-0.000189536
3.84408e-05
-0.000171519
4.19208e-05
-0.000164231
4.20923e-05
-0.000175026
8.54626e-05
-0.00015524
0.000132335
-0.000144606
7.8172e-05
-6.52997e-05
0.000112014
5.03332e-05
0.000127336
0.000105118
0.000101385
0.000180643
2.99225e-05
0.000208039
-1.78383e-05
0.000181092
-5.11567e-05
0.000168001
-4.09862e-05
0.000142413
-9.38168e-05
0.000122128
-8.81116e-05
9.31585e-05
-9.23368e-05
-0.000105973
7.86315e-05
-3.46597e-05
0.000277333
-5.00111e-05
0.000268996
-8.17228e-05
0.000217652
-8.41845e-05
0.000175369
-0.000104174
0.000100943
-0.000120203
5.71102e-05
-0.000112138
3.03763e-05
-9.8324e-05
2.81068e-05
-8.25204e-05
2.62886e-05
-7.63267e-05
7.9269e-05
-3.0225e-05
8.62329e-05
4.87776e-07
4.74594e-05
4.79947e-05
6.45068e-05
0.000100036
7.52949e-05
0.000120176
8.12454e-05
0.000103883
4.62155e-05
0.000111752
-2.57072e-05
0.000113661
-5.30657e-05
0.000156671
-8.3996e-05
0.000109345
-4.64912e-05
9.48842e-05
-7.36507e-05
7.33084e-05
-7.0761e-05
-7.24469e-05
3.97824e-05
-3.97116e-05
0.000317044
-5.28311e-05
0.000282116
-6.47844e-05
0.000229605
-7.0078e-05
0.000180663
-7.55211e-05
0.000106386
-7.40892e-05
5.56784e-05
-7.02972e-05
2.65842e-05
-5.78603e-05
1.56698e-05
-4.43696e-05
1.2798e-05
-1.7068e-05
5.19674e-05
3.45151e-05
3.46498e-05
5.9473e-05
2.25015e-05
8.95271e-05
3.44527e-05
0.000125658
3.91646e-05
0.000161271
4.56317e-05
0.000193145
1.43413e-05
0.000181753
-1.43143e-05
0.000164807
-3.61201e-05
0.000121475
-4.06638e-05
0.000107262
-3.22789e-05
9.90651e-05
-6.54535e-05
6.80693e-05
-3.97653e-05
-6.55547e-05
6.11771e-05
-2.88836e-05
0.000345928
-3.01369e-05
0.000283369
-4.19711e-05
0.00024144
-4.81692e-05
0.000186861
-4.38389e-05
0.000102055
-5.59876e-05
6.7827e-05
-2.90534e-05
-3.49915e-07
-1.40728e-05
6.89228e-07
-7.27051e-06
5.99565e-06
2.38081e-05
2.08888e-05
4.41747e-05
1.42832e-05
5.5118e-05
1.15582e-05
7.44889e-05
1.50817e-05
0.000100823
1.283e-05
0.000111584
3.48709e-05
0.000109871
1.60543e-05
7.53143e-05
2.02426e-05
6.33366e-05
-2.41423e-05
5.80377e-05
-3.53649e-05
7.67861e-05
-5.10273e-05
6.38307e-05
-5.24981e-05
6.09759e-05
-3.69105e-05
-4.28579e-05
3.8279e-05
-9.54242e-06
0.00035547
-1.93791e-05
0.000293206
-2.88941e-05
0.000250955
-4.69341e-05
0.000204901
-4.06863e-05
9.58076e-05
-1.61515e-05
4.32922e-05
-1.61317e-05
-3.69681e-07
-6.2335e-06
-9.20901e-06
3.45583e-06
-3.69369e-06
2.13506e-05
2.99401e-06
3.49161e-05
7.17683e-07
4.48904e-05
1.58394e-06
5.7956e-05
2.01608e-06
4.99052e-05
2.08809e-05
6.82514e-05
1.65247e-05
7.66228e-05
7.68289e-06
0.000111381
-1.45152e-05
9.24892e-05
-5.25098e-06
8.16212e-05
-2.44969e-05
5.34029e-05