/*--------------------------------*- C++ -*----------------------------------*\
| =========                 |                                                 |
| \\      /  F ield         | foam-extend: Open Source CFD                    |
|  \\    /   O peration     | Version:     4.1                                |
|   \\  /    A nd           | Web:         http://www.foam-extend.org         |
|    \\/     M anipulation  |                                                 |
\*---------------------------------------------------------------------------*/
FoamFile
{
    version     2.0;
    format      ascii;
    class       volVectorField;
    location    "0.9";
    object      U_0;
}
// * * * * * * * * * * * * * * * * * * * * * * * * * * * * * * * * * * * * * //

dimensions      [0 1 -1 0 0 0 0];

internalField   nonuniform List<vector> 
2268
(
(-0.00124387 0.0102722 0)
(-0.0307757 0.00928774 0)
(-0.0283394 0.00896027 0)
(-0.0583982 -0.0114466 0)
(-0.090399 0.00887457 0)
(-0.161976 0.00941212 0)
(-0.198337 0.0012721 0)
(-0.208736 -0.0112841 0)
(-0.207516 -0.0308149 0)
(-0.121319 0.0149307 0)
(-0.0988426 0.0212521 0)
(-0.109355 -0.0356961 0)
(-0.0522956 0.0154273 0)
(-0.0362745 -0.0220875 0)
(0.00422255 -0.0149577 0)
(0.0488127 -0.0175424 0)
(0.0930758 -0.0232345 0)
(0.0949449 -0.00138059 0)
(0.0801096 -0.00184495 0)
(0.0697674 -0.00389544 0)
(0.0424041 -0.00161227 0)
(0.0243017 0.002488 0)
(0.0196889 0.00586175 0)
(0.00707238 0.00489009 0)
(-0.0139113 0.00439459 0)
(-0.0157649 0.00272082 0)
(-0.0656508 0.00792805 0)
(-0.0868583 0.0146061 0)
(-0.158047 0.0439612 0)
(-0.19621 0.0181068 0)
(-0.200425 0.0131451 0)
(-0.166096 0.0100865 0)
(-0.116665 0.0371556 0)
(-0.126274 -0.032026 0)
(-0.118904 -0.0231301 0)
(-0.0661705 -0.00601004 0)
(-0.0813223 -0.0487423 0)
(-0.0217709 -0.0164771 0)
(0.0269005 -0.0195695 0)
(0.0612712 -0.0267852 0)
(0.081821 0.00949861 0)
(0.064429 0.0137252 0)
(0.0588635 0.0228672 0)
(0.0390382 0.0241395 0)
(0.022842 0.00750606 0)
(0.0118353 0.0152589 0)
(0.00485974 0.0125056 0)
(-0.0270291 0.0131869 0)
(-0.03059 0.0212167 0)
(-0.0776759 0.00349194 0)
(-0.102997 0.0304814 0)
(-0.163677 0.00783569 0)
(-0.202549 0.00242474 0)
(-0.207928 -0.0201925 0)
(-0.187783 0.0437133 0)
(-0.190394 -0.0370971 0)
(-0.157289 -0.0226483 0)
(-0.127475 -0.0104524 0)
(-0.116062 -0.00546263 0)
(-0.109626 -0.0306832 0)
(-0.0377969 -0.0427513 0)
(0.00107217 -0.047624 0)
(0.00946937 -0.0392351 0)
(0.0528986 -0.00176911 0)
(0.0421567 0.00511304 0)
(0.0440139 0.0349186 0)
(0.0222826 0.0287143 0)
(0.0107214 0.00765753 0)
(0.0133525 0.0149381 0)
(-0.00767793 0.0163314 0)
(-0.0156539 0.0228949 0)
(-0.0405015 0.0244283 0)
(-0.0697483 0.0520888 0)
(-0.0880934 0.0506694 0)
(-0.176334 0.0311279 0)
(-0.211445 0.0258141 0)
(-0.202415 0.015986 0)
(-0.230647 0.0537475 0)
(-0.226247 -0.0430287 0)
(-0.197787 0.00629016 0)
(-0.210806 -0.0384827 0)
(-0.16947 -0.0880377 0)
(-0.147266 -0.0912012 0)
(-0.0737219 -0.084972 0)
(-0.00369018 -0.0852697 0)
(0.0168982 -0.0610978 0)
(0.0157284 -0.00218403 0)
(-0.00359777 0.0176219 0)
(0.0142969 0.00596229 0)
(0.00470891 0.043998 0)
(0.0109685 0.0112226 0)
(0.0157414 0.0264067 0)
(-0.00698865 0.0218462 0)
(-0.0170839 0.0272218 0)
(-0.0130014 0.0217826 0)
(-0.057555 0.0597509 0)
(-0.0967057 0.0562674 0)
(-0.202799 0.0591435 0)
(-0.248175 0.0435619 0)
(-0.233822 0.0786179 0)
(-0.27455 -0.0150103 0)
(-0.241778 0.0339767 0)
(-0.227759 -0.0157617 0)
(-0.251839 -0.0303505 0)
(-0.200456 -0.101578 0)
(-0.132562 -0.107678 0)
(-0.0556015 -0.105719 0)
(-0.01335 -0.0257027 0)
(0.0246221 -0.0412415 0)
(0.0179151 0.0134811 0)
(-0.0504549 0.0152767 0)
(-0.0151015 0.036232 0)
(-0.0284566 0.0889404 0)
(-0.0105342 -0.000192465 0)
(0.0185903 0.0301014 0)
(-0.00634572 0.0292924 0)
(-0.0221551 0.0285164 0)
(-0.0410472 0.0424112 0)
(-0.0660909 0.0540625 0)
(-0.111325 0.045762 0)
(-0.202539 0.11521 0)
(-0.230295 0.0437726 0)
(-0.25586 0.112523 0)
(-0.289162 0.0382711 0)
(-0.264624 0.067134 0)
(-0.27722 0.00658659 0)
(-0.265875 -0.0408365 0)
(-0.212231 -0.0794572 0)
(-0.155625 -0.0549978 0)
(-0.0637924 -0.146971 0)
(0.0365676 -0.129627 0)
(0.00187915 -0.0762104 0)
(-0.00539606 0.0519271 0)
(-0.0711342 0.0491808 0)
(-0.0632268 0.0221127 0)
(-0.0787974 0.0467505 0)
(-0.0394124 -0.0117471 0)
(0.0268827 0.0276075 0)
(-0.00714243 0.0269088 0)
(-0.00355832 0.0496872 0)
(-0.0184483 0.0382204 0)
(-0.0761105 0.0783252 0)
(-0.0901578 0.0527693 0)
(-0.213277 0.105657 0)
(-0.275379 0.0574845 0)
(-0.28295 0.116553 0)
(-0.305941 0.109531 0)
(-0.275585 0.100652 0)
(-0.294232 -0.00900795 0)
(-0.303546 -0.0673058 0)
(-0.236035 -0.127487 0)
(-0.242676 -0.196092 0)
(-0.18918 -0.196771 0)
(-0.0219661 -0.217523 0)
(0.0365931 -0.146698 0)
(0.0773964 0.0450118 0)
(-0.0749532 0.0548483 0)
(-0.0851793 0.0140996 0)
(-0.0987003 0.0188136 0)
(-0.031498 -0.0289085 0)
(0.039479 0.0352983 0)
(0.00806496 0.0363432 0)
(-0.00085738 0.0317605 0)
(-0.0369289 0.06446 0)
(-0.0952507 0.0849563 0)
(-0.156021 0.0665251 0)
(-0.244332 0.070346 0)
(-0.25007 0.148021 0)
(-0.269129 0.149719 0)
(-0.316954 0.186817 0)
(-0.32307 0.0619025 0)
(-0.364086 0.0223644 0)
(-0.365052 -0.0607702 0)
(-0.398012 -0.15131 0)
(-0.311541 -0.304633 0)
(-0.22698 -0.265712 0)
(-0.182266 -0.368628 0)
(0.022797 -0.119722 0)
(0.14849 0.104187 0)
(-0.0687434 0.0846456 0)
(-0.109423 0.0271506 0)
(-0.112778 -0.00817038 0)
(-0.0380983 -0.0807569 0)
(0.0877034 0.0836716 0)
(-0.341497 0.126281 0)
(-0.5113 -0.00528745 0)
(-0.525887 -0.0856392 0)
(-0.259687 -0.129628 0)
(-0.157169 -0.0124897 0)
(-0.215179 0.0142063 0)
(-0.343242 -0.0269333 0)
(-0.411019 -0.028618 0)
(-0.442411 -0.0371319 0)
(-0.403376 -0.0858532 0)
(-0.212711 -0.121106 0)
(-0.0952235 -0.0330584 0)
(-0.0233154 0.0239006 0)
(0.00361538 -0.0522958 0)
(0.0466606 -0.0737804 0)
(0.152567 0.00550334 0)
(0.137789 0.00494644 0)
(0.0740846 0.0288064 0)
(-0.0264504 0.0147583 0)
(-0.288239 0.222681 0)
(-0.363476 0.0758019 0)
(-0.379475 -0.0988596 0)
(-0.00034061 -0.185521 0)
(0.206514 -0.0259506 0)
(0.114712 0.15707 0)
(-0.0017767 0.176147 0)
(-0.198009 0.0848154 0)
(-0.334966 0.0320223 0)
(-0.227515 -0.0918377 0)
(0.00254233 -0.136569 0)
(0.0923555 -0.034613 0)
(0.228747 -0.0736525 0)
(0.212155 0.0183885 0)
(0.231978 -0.00355281 0)
(0.35442 -0.0864882 0)
(0.28506 0.0703243 0)
(0.0569269 0.0379247 0)
(-0.0565385 0.00736606 0)
(-0.15135 0.369417 0)
(-0.140821 0.0798876 0)
(-0.120135 -0.138976 0)
(0.105186 -0.249577 0)
(0.237542 -0.0443874 0)
(0.200389 0.161802 0)
(0.0346882 0.141036 0)
(0.0252973 0.15387 0)
(-0.169701 0.0164044 0)
(-0.050232 -0.154757 0)
(0.0472053 -0.154942 0)
(0.137879 -0.113998 0)
(0.215431 -0.082452 0)
(0.338809 -0.0329856 0)
(0.333238 -0.0141076 0)
(0.422354 -0.0775053 0)
(0.346919 0.133487 0)
(0.047936 0.10917 0)
(0.0281978 0.0342055 0)
(-0.124043 0.333772 0)
(0.256015 0.107162 0)
(0.135072 -0.216231 0)
(0.218622 -0.31809 0)
(0.196445 -0.0672177 0)
(0.216444 0.138907 0)
(0.116784 0.100359 0)
(0.0313566 0.167557 0)
(-0.0753971 0.0280593 0)
(-0.087483 -0.163292 0)
(0.0286286 -0.204974 0)
(0.189215 -0.229732 0)
(0.242124 -0.0516057 0)
(0.286597 -0.145332 0)
(0.275109 -0.0421441 0)
(0.385755 0.0164663 0)
(0.380807 0.145664 0)
(0.151471 0.153889 0)
(0.207124 0.0714058 0)
(-0.0722952 0.281113 0)
(0.371433 0.0387708 0)
(0.320348 -0.426854 0)
(0.354384 -0.324442 0)
(0.19577 -0.0646312 0)
(0.270879 0.179255 0)
(0.201253 0.221868 0)
(0.0583925 0.227024 0)
(-0.26075 0.0406992 0)
(-0.286955 -0.165297 0)
(0.0237233 -0.232741 0)
(0.269278 -0.183612 0)
(0.276537 -0.225159 0)
(0.297899 -0.20185 0)
(0.275712 -0.0615338 0)
(0.366123 0.0613014 0)
(0.420379 0.181125 0)
(0.261729 0.181002 0)
(0.191791 0.154694 0)
(-0.00043376 0.185677 0)
(0.341331 0.0433579 0)
(0.393223 -0.349192 0)
(0.408849 -0.301742 0)
(0.2739 -0.0493518 0)
(0.29407 0.139063 0)
(0.371277 0.549766 0)
(-0.0739339 0.33578 0)
(-0.75622 0.175797 0)
(-0.066814 -0.385255 0)
(0.0228921 -0.366172 0)
(0.192313 -0.11401 0)
(0.338968 -0.297522 0)
(0.400143 -0.207534 0)
(0.28252 -0.0634086 0)
(0.346653 0.123642 0)
(0.37988 0.0725373 0)
(0.340199 0.126971 0)
(0.277836 0.237848 0)
(0.0661266 0.130309 0)
(0.198298 0.0280557 0)
(0.328569 -0.269017 0)
(0.395696 -0.297105 0)
(0.16605 0.0503484 0)
(0.119569 0.275766 0)
(0.317021 0.485147 0)
(-0.645088 0.486557 0)
(-0.626161 0.21778 0)
(0.0228659 -0.464578 0)
(0.0316885 -0.615151 0)
(0.00802516 -0.403811 0)
(0.263049 -0.3255 0)
(0.452836 -0.153696 0)
(0.385946 -0.0570833 0)
(0.319977 0.152897 0)
(0.310348 0.0720599 0)
(0.332319 0.177011 0)
(0.327185 0.403536 0)
(0.0468313 0.0643074 0)
(0.234174 -0.0644933 0)
(0.227891 -0.486098 0)
(0.186238 -0.485936 0)
(0.262376 0.0662075 0)
(-0.0677807 0.173357 0)
(-0.0270215 0.461474 0)
(-0.865732 0.602415 0)
(-0.314826 -0.0396992 0)
(0.0103841 -0.536592 0)
(0.00461235 -0.718964 0)
(0.0665936 -0.587378 0)
(0.296867 -0.296266 0)
(0.416765 -0.085935 0)
(0.344936 0.0200083 0)
(0.24178 0.174794 0)
(0.23312 0.149838 0)
(0.262645 0.163467 0)
(0.299773 0.424326 0)
(-0.00375573 0.012347 0)
(0.0519962 0.101114 0)
(0.0370016 0.071929 0)
(-0.124059 0.153275 0)
(-0.170232 0.156882 0)
(-0.173967 0.182363 0)
(-0.28459 0.204614 0)
(-0.305195 0.135743 0)
(-0.352105 0.13423 0)
(-0.374242 0.0297501 0)
(-0.372609 0.00629605 0)
(-0.498499 -0.0888879 0)
(-0.527371 -0.132794 0)
(-0.428765 -0.230457 0)
(-0.374758 -0.214116 0)
(-0.347702 -0.423404 0)
(-0.113874 -0.0740593 0)
(0.0754678 -0.0133476 0)
(-0.0300894 0.171485 0)
(-0.115635 0.0430246 0)
(-0.132528 -0.026967 0)
(-0.0507234 -0.152287 0)
(0.11599 -0.0368615 0)
(0.0363094 0.000623574 0)
(-0.0205153 0.105418 0)
(0.00267573 0.169118 0)
(-0.0208419 0.179462 0)
(-0.175887 0.210208 0)
(-0.241886 0.228376 0)
(-0.275407 0.155281 0)
(-0.305184 0.187543 0)
(-0.400213 0.178297 0)
(-0.419025 0.0891394 0)
(-0.450598 0.166345 0)
(-0.530397 0.129435 0)
(-0.540893 -0.191285 0)
(-0.592365 -0.35249 0)
(-0.70409 -0.399376 0)
(-0.632723 -0.499284 0)
(-0.595505 -0.390353 0)
(-0.464012 0.149864 0)
(-0.139758 0.234396 0)
(-0.151881 0.108791 0)
(-0.0412001 -0.140909 0)
(-0.0940473 -0.249163 0)
(-0.152683 -0.149179 0)
(0.0102682 -0.0230677 0)
(0.133777 0.0572184 0)
(0.0846592 0.226641 0)
(-0.0585785 0.254767 0)
(-0.0602551 0.297726 0)
(-0.209779 0.282727 0)
(-0.29929 0.265083 0)
(-0.313765 0.251512 0)
(-0.566238 0.189736 0)
(-0.577992 0.18713 0)
(-0.479004 0.154843 0)
(-0.660423 -0.0669048 0)
(-0.704948 -0.36373 0)
(-0.80103 -0.553452 0)
(-0.883701 -0.644061 0)
(-0.814393 -0.493232 0)
(-0.676119 -0.540878 0)
(-0.638779 -0.172568 0)
(-0.467955 -0.0988172 0)
(-0.430389 -0.0235894 0)
(-0.137629 -0.245468 0)
(-0.0927178 -0.250124 0)
(-0.227863 -0.187671 0)
(0.0322628 -0.127064 0)
(0.139388 0.00679055 0)
(0.314833 0.223753 0)
(0.186999 0.305834 0)
(-0.00556515 0.634396 0)
(-0.0646489 0.38049 0)
(-0.1984 0.444711 0)
(-0.355196 0.387506 0)
(-0.510305 0.255915 0)
(-0.547381 0.328858 0)
(-0.567739 0.294274 0)
(-0.612007 0.329293 0)
(-0.834876 0.14472 0)
(-0.927926 -0.413908 0)
(-0.933037 -0.858979 0)
(-0.950026 -0.438922 0)
(-0.744461 -0.397594 0)
(-0.442658 -0.342045 0)
(-0.349072 -0.272513 0)
(-0.177292 -0.191403 0)
(-0.0924437 -0.190079 0)
(-0.084532 -0.125527 0)
(-0.173369 -0.0944604 0)
(-0.0427194 -0.215799 0)
(0.153485 0.0125229 0)
(0.249289 0.467716 0)
(0.199281 0.434065 0)
(-0.00809468 0.650136 0)
(-0.145771 0.444004 0)
(-0.297112 0.415527 0)
(-0.413809 0.45694 0)
(-0.516948 0.441759 0)
(-0.589588 0.297805 0)
(-0.540571 0.258569 0)
(-0.347184 0.763898 0)
(-0.386926 0.481983 0)
(-0.507835 -0.201151 0)
(-1.05893 -0.893225 0)
(-0.857586 -0.486111 0)
(-0.798883 -0.317564 0)
(-0.710873 -0.355885 0)
(-0.482338 -0.375815 0)
(-0.270202 -0.246681 0)
(-0.0914153 -0.121952 0)
(-0.0602886 -0.144238 0)
(-0.146176 -0.0532009 0)
(-0.101682 -0.242811 0)
(-0.19855 -0.062907 0)
(-0.000646343 0.273103 0)
(-0.0282825 0.367096 0)
(-0.194477 0.44865 0)
(-0.391905 0.684616 0)
(-0.58979 0.656513 0)
(-0.615453 0.592235 0)
(-0.588966 0.451633 0)
(-0.550437 0.256539 0)
(-0.507822 0.0583387 0)
(-0.460592 0.325191 0)
(-0.582544 0.261786 0)
(-0.55163 -0.318427 0)
(-0.815955 -0.493965 0)
(-0.982419 -0.492549 0)
(-1.06134 -0.507462 0)
(-0.909156 -0.616982 0)
(-0.589112 -0.698039 0)
(-0.387113 -0.692654 0)
(-0.26948 -0.483864 0)
(-0.199067 -0.371931 0)
(-0.105959 0.012821 0)
(-0.0545358 -0.0667777 0)
(-0.0783916 -0.0460521 0)
(-0.448546 0.117822 0)
(-0.674309 0.623184 0)
(-0.708653 0.884878 0)
(-1.06343 0.910528 0)
(-0.745115 0.698187 0)
(-0.636844 0.545056 0)
(-0.602064 0.399205 0)
(-0.479971 0.171878 0)
(-0.47524 0.131773 0)
(-0.679172 0.401049 0)
(-0.544295 0.2988 0)
(-0.429991 -0.110757 0)
(-0.650443 -0.340961 0)
(-0.640962 -0.572316 0)
(-0.748879 -0.863403 0)
(-0.716198 -0.656196 0)
(-0.615089 -0.730446 0)
(-0.576252 -0.795044 0)
(-0.280965 -0.641852 0)
(-0.0825027 -0.506773 0)
(-0.0201529 -0.17551 0)
(-0.175052 -0.0123743 0)
(-0.135451 0.331103 0)
(-0.358608 0.513317 0)
(-0.50864 0.872805 0)
(-0.87709 1.196 0)
(-0.9473 0.9354 0)
(-0.743521 0.758018 0)
(-0.680834 0.421251 0)
(-0.591233 0.30142 0)
(-0.636281 0.144218 0)
(-0.805713 0.330002 0)
(-0.778825 0.316943 0)
(-0.565021 0.0978773 0)
(-0.602228 -0.168465 0)
(-0.626301 -0.295287 0)
(-0.543002 -0.520445 0)
(-0.529022 -0.587706 0)
(-0.441611 -0.69451 0)
(-0.454274 -0.930091 0)
(-0.42962 -1.04231 0)
(-0.256222 -0.56188 0)
(-0.147918 -0.325358 0)
(-0.273697 0.161243 0)
(-0.277589 0.0812268 0)
(-0.164433 0.455688 0)
(-0.412716 0.913958 0)
(-0.57615 1.10019 0)
(-0.768479 1.09476 0)
(-0.802946 0.781465 0)
(-0.752092 0.417535 0)
(-0.830953 0.360502 0)
(-0.762462 0.363303 0)
(-0.960416 0.320741 0)
(-0.991429 0.283021 0)
(-0.8575 0.179229 0)
(-0.785617 0.0216671 0)
(-0.838588 -0.11975 0)
(-0.874197 -0.295315 0)
(-0.649238 -0.572257 0)
(-0.502439 -0.731183 0)
(-0.377251 -0.756314 0)
(-0.292606 -0.846726 0)
(-0.378817 -0.767084 0)
(-0.186971 -0.707537 0)
(-0.281866 -0.527236 0)
(-0.0493775 0.229311 0)
(-0.306477 0.208196 0)
(-0.0632171 0.665409 0)
(-0.359243 1.31097 0)
(-0.386614 1.27602 0)
(-0.574493 1.22625 0)
(-0.464409 0.833036 0)
(-0.485114 0.333755 0)
(-0.649799 0.320306 0)
(-0.915165 0.495752 0)
(-1.01347 0.46657 0)
(-0.903172 0.366933 0)
(-0.927556 0.326403 0)
(-1.0147 0.11007 0)
(-0.827762 -0.095833 0)
(-0.979813 -0.417438 0)
(-1.00725 -0.713762 0)
(-0.777406 -0.970243 0)
(-0.568559 -0.930685 0)
(-0.455663 -0.912314 0)
(-0.640034 -0.928734 0)
(-0.624771 -0.733782 0)
(-0.789058 -0.509438 0)
(-0.672525 0.256327 0)
(-0.27324 0.261993 0)
(0.138737 0.757359 0)
(-0.336477 1.24563 0)
(-0.395379 1.29208 0)
(-0.321101 1.22504 0)
(-0.245569 0.729101 0)
(-0.535318 0.580526 0)
(-0.515304 0.689917 0)
(-0.832915 0.901068 0)
(-1.00783 0.888555 0)
(-0.965857 0.618289 0)
(-1.18275 0.513657 0)
(-1.343 -0.0819241 0)
(-1.08951 -0.3283 0)
(-1.2016 -0.644679 0)
(-1.16422 -0.768944 0)
(-0.857423 -0.968786 0)
(-0.596223 -1.06708 0)
(-0.630551 -1.09848 0)
(-0.751341 -0.914735 0)
(-0.742309 -0.693465 0)
(-0.858348 -0.495109 0)
(-1.01595 -0.193173 0)
(-0.234228 0.275694 0)
(0.0820837 0.814353 0)
(-0.38516 1.15995 0)
(-0.335433 1.2707 0)
(-0.339455 1.20635 0)
(-0.192964 1.06182 0)
(-0.323774 0.883863 0)
(-0.743584 1.18171 0)
(-1.05769 0.956854 0)
(-1.3119 0.86852 0)
(-1.34022 0.570624 0)
(-1.75145 0.388597 0)
(-1.74413 -0.172758 0)
(-1.26525 -0.372955 0)
(-1.2253 -0.676054 0)
(-1.08416 -0.861706 0)
(-1.01125 -0.942201 0)
(-0.957899 -1.20191 0)
(-0.93619 -1.27357 0)
(-0.759932 -0.958533 0)
(-0.665744 -0.638908 0)
(-0.730859 -0.387918 0)
(-0.828192 -0.16904 0)
(-0.206835 0.368199 0)
(-0.0635647 0.942791 0)
(-0.421408 1.23518 0)
(-0.284397 1.16661 0)
(-0.248994 1.18133 0)
(-0.400823 1.11802 0)
(-0.535604 0.992578 0)
(-0.814065 1.3192 0)
(-1.05133 1.16182 0)
(-1.14445 0.777248 0)
(-1.2016 0.476797 0)
(-1.40378 -0.0853025 0)
(-1.13456 -0.340701 0)
(-1.02873 -0.38159 0)
(-1.13621 -0.581149 0)
(-1.24954 -0.876975 0)
(-1.10469 -1.14272 0)
(-1.062 -1.24212 0)
(-1.08238 -1.32197 0)
(-1.1965 -1.2598 0)
(-0.894296 -0.818219 0)
(-0.609419 -0.530374 0)
(-0.678587 -0.0826674 0)
(-0.180739 0.541355 0)
(-0.175636 1.09718 0)
(-0.555266 1.40595 0)
(-0.346854 1.24807 0)
(-0.286442 1.22927 0)
(-0.370077 1.16929 0)
(-0.50051 1.28485 0)
(-0.730932 1.55743 0)
(-0.949393 1.24855 0)
(-0.925352 0.788276 0)
(-1.2483 0.421438 0)
(-1.54789 0.16072 0)
(-1.01192 -0.662599 0)
(-0.768357 -0.760395 0)
(-0.763045 -0.668349 0)
(-1.11991 -0.768515 0)
(-1.1023 -1.21165 0)
(-0.987275 -1.3278 0)
(-0.833032 -1.11702 0)
(-1.07147 -0.893491 0)
(-1.12304 -0.703435 0)
(-0.876556 -0.736343 0)
(-0.75645 -0.632477 0)
(-0.03788 0.666661 0)
(-0.116747 1.14174 0)
(-0.401484 1.56744 0)
(-0.247 1.61967 0)
(-0.309408 1.38094 0)
(-0.444513 1.45469 0)
(-0.481428 1.65605 0)
(-0.692861 1.81014 0)
(-0.832928 1.56712 0)
(-0.457769 0.90577 0)
(-0.628024 0.153297 0)
(-1.17697 -0.0985552 0)
(-0.957332 -0.717324 0)
(-0.168405 -0.929367 0)
(0.260261 -0.422005 0)
(-0.706515 -0.607222 0)
(-0.78846 -0.942667 0)
(-0.64475 -1.16838 0)
(-0.553304 -1.15075 0)
(-0.654377 -0.855063 0)
(-0.926639 -0.816328 0)
(-0.920082 -0.544426 0)
(-0.876089 -0.465043 0)
(0.0429419 0.744879 0)
(-0.0451134 1.1144 0)
(0.00564095 1.58458 0)
(-0.231491 1.58712 0)
(-0.376667 1.3549 0)
(-0.276963 1.52909 0)
(-0.355267 1.65991 0)
(-0.366888 1.84788 0)
(-0.388492 1.62438 0)
(0.159415 1.7458 0)
(-0.450171 0.454083 0)
(-0.193059 -0.289214 0)
(0.0189859 -0.63389 0)
(0.0841477 -0.687805 0)
(0.657831 -0.299204 0)
(0.584013 -0.275669 0)
(0.307919 -0.653106 0)
(-0.117016 -0.93109 0)
(-0.384983 -1.15906 0)
(-0.459906 -1.04046 0)
(-0.686663 -0.868279 0)
(-0.598148 -0.650059 0)
(-0.665048 -0.761724 0)
(0.0569655 0.712608 0)
(0.0869082 1.14691 0)
(-0.0399119 1.57336 0)
(-0.166355 1.3428 0)
(-0.285018 1.30413 0)
(-0.143262 1.47569 0)
(-0.140411 1.45273 0)
(-0.119147 1.66034 0)
(0.0797349 1.66305 0)
(0.741231 1.44422 0)
(0.486191 0.948098 0)
(0.469427 -0.000902905 0)
(0.552341 -1.18012 0)
(0.833984 -1.24191 0)
(1.27155 -1.07735 0)
(1.16837 -0.281329 0)
(1.0899 -0.438509 0)
(0.828075 -0.634899 0)
(0.149648 -0.773786 0)
(-0.206073 -1.13515 0)
(-0.301533 -0.706155 0)
(-0.414832 -0.534069 0)
(-0.452863 -0.508721 0)
(0.0310887 0.622765 0)
(0.138514 1.23642 0)
(-0.173964 1.61394 0)
(-0.203921 1.49842 0)
(-0.203112 1.42162 0)
(-0.086501 1.55288 0)
(-0.0710611 1.52136 0)
(0.359644 1.76391 0)
(0.926141 1.78723 0)
(0.974708 1.43882 0)
(0.9922 0.666912 0)
(0.695937 -0.283759 0)
(0.981401 -1.19901 0)
(1.23797 -1.4347 0)
(1.63358 -1.10253 0)
(1.64611 -0.678203 0)
(1.32323 -0.522043 0)
(1.08757 -0.47889 0)
(0.607235 -0.300955 0)
(-0.174695 -0.178172 0)
(-0.228097 -0.367511 0)
(-0.265791 -0.439014 0)
(-0.343356 -0.337551 0)
(-0.202274 0.479563 0)
(0.0474282 1.39312 0)
(-0.265853 1.60283 0)
(-0.0454722 1.58589 0)
(0.0484562 1.78897 0)
(0.135914 1.63301 0)
(0.257839 1.75125 0)
(0.605466 1.7498 0)
(0.989636 1.43292 0)
(0.92995 0.968034 0)
(1.01705 0.519668 0)
(1.2698 -0.0538516 0)
(1.11669 -0.629672 0)
(1.58259 -1.20079 0)
(1.52225 -0.774929 0)
(1.14333 -0.902281 0)
(0.782558 -0.410547 0)
(0.0167018 0.135266 0)
(-0.117773 0.317582 0)
(-0.201533 0.226903 0)
(-0.377756 -0.198585 0)
(-0.214679 -0.473423 0)
(-0.182679 -0.519687 0)
(-0.666942 0.647461 0)
(-0.0923229 1.57113 0)
(-0.413011 1.51346 0)
(0.0856477 1.40841 0)
(0.326478 1.64108 0)
(0.537571 1.3869 0)
(0.699959 1.458 0)
(0.805209 1.19267 0)
(1.32772 1.03152 0)
(1.44603 0.515099 0)
(1.69739 0.342937 0)
(1.81936 -0.0984617 0)
(1.44772 -0.4882 0)
(1.20515 -0.551095 0)
(0.941899 -0.712537 0)
(0.532843 -0.822623 0)
(-0.159625 -0.055844 0)
(-0.435059 0.461672 0)
(-0.372177 0.244764 0)
(-0.56388 0.12271 0)
(-0.588039 -0.276831 0)
(-0.291073 -0.566656 0)
(-0.182422 -0.795157 0)
(-0.799928 0.845425 0)
(0.142223 1.68512 0)
(-0.711881 1.24891 0)
(0.543078 1.13864 0)
(1.28625 0.67739 0)
(1.60238 0.589373 0)
(1.52254 0.164958 0)
(1.72541 0.0402885 0)
(1.86341 0.193235 0)
(2.02203 0.352221 0)
(2.09055 0.301776 0)
(2.00845 0.21548 0)
(1.43663 0.0267023 0)
(1.02771 0.0431126 0)
(0.757471 -0.302948 0)
(0.265242 -0.00447954 0)
(-0.365538 0.794898 0)
(-0.378928 0.474988 0)
(-0.607444 0.220182 0)
(-0.554899 -0.125896 0)
(-0.353138 -0.323531 0)
(-0.420463 -0.498061 0)
(-0.328728 -0.74015 0)
(-0.834624 0.929225 0)
(0.562892 1.74023 0)
(-0.530592 1.06942 0)
(0.923516 0.479402 0)
(1.4026 0.273535 0)
(1.28357 0.397893 0)
(1.01412 0.198518 0)
(1.02106 0.195152 0)
(1.07711 0.201912 0)
(1.26211 0.282624 0)
(1.34919 0.371398 0)
(1.26676 0.402331 0)
(0.910785 0.354847 0)
(0.732825 0.136528 0)
(0.699482 0.0992411 0)
(0.280044 0.444772 0)
(-0.453685 1.11385 0)
(-0.549083 0.591598 0)
(-0.674137 0.393936 0)
(-0.584587 -0.213718 0)
(-0.322526 -0.430399 0)
(-0.241103 -0.546712 0)
(-0.324851 -0.648044 0)
(-0.80706 0.966363 0)
(0.764778 1.56613 0)
(0.0895864 0.626178 0)
(0.623404 0.420561 0)
(1.11191 0.204872 0)
(0.948469 0.0221831 0)
(0.822898 0.125287 0)
(0.86732 0.129365 0)
(0.854405 0.0508182 0)
(0.895564 0.167518 0)
(0.911916 0.234471 0)
(0.85163 0.484312 0)
(0.825375 0.442744 0)
(0.679728 0.275509 0)
(0.601731 0.356274 0)
(0.0495647 0.994647 0)
(-0.501296 1.10928 0)
(-0.501237 0.695262 0)
(-0.376343 0.408556 0)
(-0.232455 -0.442888 0)
(-0.354758 -0.777625 0)
(-0.242856 -0.764108 0)
(-0.248334 -0.801121 0)
(-0.755624 0.975192 0)
(0.76646 1.38815 0)
(0.433965 0.35657 0)
(0.616537 0.374405 0)
(0.799019 0.128265 0)
(0.964837 -0.318639 0)
(0.956836 0.0177878 0)
(0.781007 0.180931 0)
(0.889935 0.0863532 0)
(0.8179 0.180946 0)
(0.769374 0.304212 0)
(0.808081 0.508102 0)
(0.766765 0.492426 0)
(0.638038 0.441803 0)
(0.272719 0.859926 0)
(-0.431219 1.41236 0)
(-0.556602 1.18877 0)
(-0.279205 0.781535 0)
(-0.318617 0.20363 0)
(-0.125513 -0.545952 0)
(-0.28505 -0.907087 0)
(-0.00528953 -0.865947 0)
(-0.114503 -0.806841 0)
(-0.667331 0.994887 0)
(0.622122 1.12437 0)
(0.419912 0.402632 0)
(0.611679 0.361607 0)
(0.863949 0.0595941 0)
(1.0631 -0.2015 0)
(1.11894 -0.256416 0)
(1.00802 -0.0568127 0)
(1.13564 0.0919678 0)
(1.04289 0.279938 0)
(0.613187 0.684353 0)
(0.666214 0.631375 0)
(0.574236 0.593788 0)
(0.530748 0.745792 0)
(-0.095916 1.41997 0)
(-0.662394 1.80313 0)
(-0.593656 1.45561 0)
(-0.144752 0.991886 0)
(0.200628 0.623021 0)
(-0.128653 -0.68077 0)
(-0.110127 -0.600138 0)
(0.11215 -0.85088 0)
(0.0232807 -0.85966 0)
(-0.465476 1.01425 0)
(0.167184 0.413617 0)
(0.346404 0.338376 0)
(0.814096 0.0313466 0)
(1.40572 -0.518264 0)
(1.29905 -0.451054 0)
(1.38753 -0.0900088 0)
(1.0775 0.387572 0)
(1.14337 0.416045 0)
(0.939207 0.358286 0)
(0.379818 0.706163 0)
(0.309136 0.604294 0)
(0.429229 0.64066 0)
(0.219431 1.03681 0)
(-0.373746 1.74531 0)
(-0.561192 1.8872 0)
(-0.297254 1.46628 0)
(-0.277053 0.65984 0)
(-0.395113 -0.143176 0)
(0.211201 -0.790007 0)
(0.250643 -0.752298 0)
(0.163031 -0.936963 0)
(0.200086 -0.875084 0)
(-0.118118 1.32246 0)
(0.0576756 0.194386 0)
(0.292946 0.0399118 0)
(0.813101 -0.363696 0)
(1.0223 -0.946844 0)
(0.97636 -0.596402 0)
(1.02553 -0.239905 0)
(0.629407 0.535769 0)
(0.801782 0.920085 0)
(0.576066 0.482981 0)
(0.236842 0.704709 0)
(0.00675984 1.02764 0)
(0.181351 0.829756 0)
(-0.114494 1.32207 0)
(-0.320452 1.84619 0)
(-0.455346 1.91199 0)
(0.0804017 1.19593 0)
(-0.0889554 0.489047 0)
(0.292833 -0.191111 0)
(0.269268 -0.597539 0)
(0.291562 -0.972081 0)
(0.335762 -1.02353 0)
(0.264058 -0.928451 0)
(0.291496 1.14374 0)
(0.0846186 0.124709 0)
(0.583782 -0.428717 0)
(0.496968 -0.83776 0)
(0.167863 -0.603602 0)
(-0.0914185 -0.104391 0)
(-0.124796 0.437913 0)
(-0.360616 0.743259 0)
(0.174497 0.914058 0)
(-0.0407411 0.607475 0)
(-0.0387312 0.883678 0)
(-0.157824 0.895123 0)
(-0.332345 0.812484 0)
(-0.32541 1.51649 0)
(-0.214915 1.82044 0)
(-0.281903 1.81659 0)
(0.162914 0.636783 0)
(0.0298934 0.192632 0)
(0.321968 -0.610036 0)
(0.438192 -0.649684 0)
(0.383036 -0.731124 0)
(0.439814 -0.928246 0)
(0.343519 -0.874444 0)
(0.328064 0.788495 0)
(0.179203 0.266482 0)
(0.281799 -0.236237 0)
(-0.317565 -0.505742 0)
(-0.622516 -0.326247 0)
(-0.621312 -0.03489 0)
(-0.777305 0.306449 0)
(-0.813278 0.373621 0)
(-0.500433 0.679598 0)
(-0.499066 0.781705 0)
(-0.316499 0.700429 0)
(-0.440801 0.63438 0)
(-0.36573 0.950966 0)
(-0.375682 1.44698 0)
(-0.186202 1.62914 0)
(-0.0367818 1.60243 0)
(0.369887 0.445499 0)
(0.407767 0.210741 0)
(0.498846 -0.266322 0)
(0.631099 -0.536264 0)
(0.501793 -0.815632 0)
(0.458672 -0.92377 0)
(0.294954 -0.977537 0)
(0.207225 0.635781 0)
(0.0521223 0.342748 0)
(-0.424997 -0.103622 0)
(-0.529015 -0.345849 0)
(-0.866114 -0.233816 0)
(-0.919109 0.0386173 0)
(-0.835656 0.203183 0)
(-0.876126 0.251856 0)
(-0.78531 0.525879 0)
(-0.925867 0.702237 0)
(-0.682716 0.851911 0)
(-0.499464 0.786711 0)
(-0.625618 1.14285 0)
(-0.615545 1.36335 0)
(-0.0552559 1.43162 0)
(0.445991 1.29165 0)
(0.5658 0.639965 0)
(0.475945 0.165976 0)
(0.558067 -0.371293 0)
(0.572441 -0.638838 0)
(0.591789 -1.05998 0)
(0.458274 -1.04971 0)
(0.23238 -0.883098 0)
(0.0290916 0.633663 0)
(-0.0452198 0.656344 0)
(-0.303271 0.518022 0)
(-0.740689 0.0894324 0)
(-0.893621 -0.0426769 0)
(-0.953943 -0.0188772 0)
(-0.900245 0.133308 0)
(-0.849117 0.13152 0)
(-0.818701 0.412685 0)
(-0.835095 0.602939 0)
(-0.727401 0.841883 0)
(-0.617955 0.852689 0)
(-0.697301 1.12678 0)
(-0.597176 1.33151 0)
(-0.128891 1.43972 0)
(0.376132 1.13245 0)
(0.483945 0.425461 0)
(0.523995 0.194993 0)
(0.623184 -0.334857 0)
(0.606595 -0.563757 0)
(0.42875 -0.780401 0)
(0.391456 -0.703375 0)
(0.446956 -0.558081 0)
(0.0135904 0.689125 0)
(-0.11882 1.32218 0)
(-0.615858 0.821222 0)
(-0.737659 0.431072 0)
(-0.622604 0.173913 0)
(-0.808789 0.0481432 0)
(-0.832876 0.156985 0)
(-0.840356 0.219152 0)
(-0.738958 0.313583 0)
(-0.731089 0.336266 0)
(-0.754888 0.582859 0)
(-0.576833 0.628817 0)
(-0.68453 0.830602 0)
(-0.499074 0.996209 0)
(-0.210391 0.77132 0)
(0.0160914 0.491983 0)
(0.831063 0.0225774 0)
(0.87149 -0.218842 0)
(0.663307 -0.417465 0)
(0.504702 -0.514995 0)
(0.552854 -0.517063 0)
(0.542438 -0.50139 0)
(0.416286 -0.446365 0)
(-0.0946996 0.785973 0)
(-0.337205 1.48665 0)
(-0.461167 1.01567 0)
(-0.421554 1.03248 0)
(-0.606476 0.383593 0)
(-0.669902 0.232759 0)
(-0.682137 0.264326 0)
(-0.690225 0.299631 0)
(-0.605682 0.365077 0)
(-0.6443 0.29052 0)
(-0.669807 0.560176 0)
(-0.515034 0.599803 0)
(-0.467801 0.665229 0)
(-0.0257188 0.889159 0)
(0.369965 0.454741 0)
(0.456576 0.236912 0)
(0.834511 0.0176457 0)
(0.741702 -0.340827 0)
(0.654378 -0.320892 0)
(0.57708 -0.381928 0)
(0.479574 -0.327797 0)
(0.406309 -0.384765 0)
(0.274389 -0.448768 0)
(-0.147464 0.981409 0)
(-0.337597 1.91502 0)
(-0.308192 1.57853 0)
(-0.354736 1.33553 0)
(-0.823138 0.727969 0)
(-0.550675 0.350612 0)
(-0.406876 0.281058 0)
(-0.414439 0.295091 0)
(-0.305713 0.253835 0)
(-0.279032 0.338502 0)
(-0.293714 0.39612 0)
(-0.0289966 0.537732 0)
(0.0402601 0.734103 0)
(0.32838 0.793482 0)
(0.408185 0.478995 0)
(0.531296 0.175162 0)
(0.856295 -0.292142 0)
(0.784154 -0.35517 0)
(0.73084 -0.294337 0)
(0.453772 -0.329226 0)
(0.35568 -0.309 0)
(0.330147 -0.288443 0)
(0.219052 -0.316661 0)
(-0.216635 1.07305 0)
(-0.284157 1.89614 0)
(-0.127813 1.59896 0)
(-0.318338 1.22632 0)
(-0.68943 0.746481 0)
(-0.289835 0.469373 0)
(-0.26544 0.154578 0)
(-0.239645 0.097177 0)
(-0.170106 0.117288 0)
(-0.144322 0.232136 0)
(0.0248347 0.256742 0)
(0.22221 0.147591 0)
(0.227899 0.240342 0)
(0.438954 0.314449 0)
(0.502861 0.176891 0)
(0.699476 0.140654 0)
(0.724543 -0.0854332 0)
(0.675086 -0.0896336 0)
(0.541102 -0.305182 0)
(0.380309 -0.290695 0)
(0.39837 -0.26745 0)
(0.332675 -0.258696 0)
(0.198138 -0.219378 0)
(-0.206786 1.27321 0)
(-0.180235 2.00748 0)
(-0.0538159 1.66847 0)
(-0.255789 1.30773 0)
(-0.416403 0.79901 0)
(-0.175359 0.337359 0)
(-0.247213 0.0224472 0)
(-0.12714 0.0174551 0)
(-0.0674083 0.0633575 0)
(0.0193444 0.134877 0)
(0.147018 0.212107 0)
(0.179961 0.149821 0)
(0.229216 0.195402 0)
(0.311348 0.155459 0)
(0.428519 0.144215 0)
(0.387343 0.0567946 0)
(0.463223 0.00674217 0)
(0.530518 -0.192115 0)
(0.399574 -0.256685 0)
(0.382501 -0.187531 0)
(0.212288 -0.211353 0)
(0.24799 -0.295572 0)
(0.193778 -0.285777 0)
(-0.107287 1.29511 0)
(-0.0285611 1.99869 0)
(-0.0902227 1.69115 0)
(-0.125218 1.41814 0)
(-0.216012 0.69785 0)
(-0.0749936 0.153286 0)
(-0.106522 -0.0124431 0)
(-0.0184063 -0.0135579 0)
(-0.0214835 -0.0189898 0)
(0.0508108 0.0214107 0)
(0.0984752 -0.00387553 0)
(0.156213 0.0145256 0)
(0.166889 0.0171899 0)
(0.262756 0.0321364 0)
(0.439159 0.0990956 0)
(0.544498 0.055283 0)
(0.496756 0.102032 0)
(0.349204 0.0285863 0)
(0.317394 -0.0194555 0)
(0.266408 -0.178597 0)
(0.130869 -0.179256 0)
(0.171417 -0.22762 0)
(0.288794 -0.312833 0)
(0.097544 1.54062 0)
(0.246554 2.17203 0)
(-0.0189959 1.84985 0)
(-0.0631038 1.53061 0)
(-0.204657 0.69794 0)
(-0.0119237 0.170596 0)
(0.00387008 0.00775286 0)
(0.0246753 -0.0541347 0)
(0.0177833 -0.0344145 0)
(0.0669855 -0.00370145 0)
(0.0929037 0.00807005 0)
(0.0998062 -0.00547118 0)
(0.16012 -0.00172425 0)
(0.341656 0.109239 0)
(0.367918 0.136169 0)
(0.336321 0.0474089 0)
(0.400226 -0.189427 0)
(0.338056 -0.115139 0)
(0.232543 -0.154113 0)
(0.235795 -0.142191 0)
(0.188954 -0.11857 0)
(0.227011 -0.12538 0)
(0.290288 -0.268999 0)
(-0.0276599 2.14763 0)
(0.127337 2.39919 0)
(-0.117721 1.9855 0)
(-0.127789 1.54153 0)
(-0.152796 0.666655 0)
(0.0291776 0.229808 0)
(-0.0197889 -0.046935 0)
(0.0694553 -0.0925323 0)
(0.0632616 -0.115233 0)
(0.0949523 -0.0996707 0)
(0.0895509 -0.0678322 0)
(0.120935 -0.0947929 0)
(0.181879 0.0256668 0)
(0.395974 -0.0573092 0)
(0.380441 -0.0179922 0)
(0.293742 0.0227486 0)
(0.368078 -0.0440612 0)
(0.33166 -0.0901465 0)
(0.313165 -0.044661 0)
(0.296691 0.0184094 0)
(0.259952 -0.0253007 0)
(0.187256 -0.121567 0)
(0.246082 -0.272175 0)
(-0.0535266 2.12343 0)
(-0.0377134 2.38258 0)
(-0.428016 2.27518 0)
(-0.33453 1.51966 0)
(-0.0973564 0.571258 0)
(0.0674509 0.063319 0)
(0.0872841 -0.116638 0)
(0.0892692 -0.0598178 0)
(0.0452399 -0.074315 0)
(0.120937 -0.0562544 0)
(0.0785667 -0.030151 0)
(0.181907 -0.0465767 0)
(0.181416 -0.010159 0)
(0.212656 -0.00241971 0)
(0.37735 -0.0853693 0)
(0.219478 -0.0279899 0)
(0.236172 -0.0762958 0)
(0.420705 -0.176144 0)
(0.430161 -0.0629472 0)
(0.323357 -0.0937965 0)
(0.158927 -0.00238181 0)
(0.286797 -0.0693346 0)
(0.251576 -0.162846 0)
(-0.122475 2.19756 0)
(-0.152456 2.57342 0)
(-0.575434 2.13898 0)
(-0.526492 1.07231 0)