/*--------------------------------*- C++ -*----------------------------------*\
| =========                 |                                                 |
| \\      /  F ield         | foam-extend: Open Source CFD                    |
|  \\    /   O peration     | Version:     4.1                                |
|   \\  /    A nd           | Web:         http://www.foam-extend.org         |
|    \\/     M anipulation  |                                                 |
\*---------------------------------------------------------------------------*/
FoamFile
{
    version     2.0;
    format      ascii;
    class       volScalarField;
    location    "0.95";
    object      alpha1;
}
// * * * * * * * * * * * * * * * * * * * * * * * * * * * * * * * * * * * * * //

dimensions      [0 0 0 0 0 0 0];

internalField   nonuniform List<scalar> 
2268
(
1
1
0.999999
0.999999
0.999999
1
1
1
1
1
1
1
1
1
1
1
1
1
1
1
1
1
0.999996
0.999999
0.999999
0.999999
1
1
1
1
1
1
1
1
1
1
1
1
1
1
1
1
1
1
1
0.999987
0.999999
1
1
1
1
1
1
1
1
1
1
1
1
1
0.999996
1
1
1
1
1
1
0.999999
0.999979
1
1
1
1
1
1
1
1
1
1
1
0.999977
0.999869
0.999803
0.999461
0.999922
0.999944
0.999996
1
1
1
0.999998
0.999982
1
1
1
1
1
1
1
1
1
1
0.999972
0.998899
0.994759
0.992124
0.989495
0.996835
0.998532
0.9999
1
1
0.999999
0.999983
0.999995
1
0.999996
0.999991
0.999995
0.999997
1
1
1
1
0.999999
0.999737
0.993703
0.969052
0.944535
0.945251
0.97308
0.99259
0.999653
1
0.999999
0.999871
0.997853
0.999994
1
0.999992
0.999959
0.999961
0.999972
1
1
1
1
0.999983
0.999162
0.990034
0.943685
0.875608
0.869706
0.923892
0.978991
0.998058
0.999443
0.999643
0.993206
0.978298
0.999378
1
0.999987
0.999936
0.999946
0.999991
1
1
1
0.999982
0.999433
0.996693
0.991643
0.961899
0.870401
0.768048
0.823534
0.951481
0.990252
0.996998
0.985658
0.944261
0.954317
0.994209
0.977068
0.977068
0.977068
0.965998
0.904126
0.856281
0.894817
0.881607
0.878535
0.87806
0.877587
0.855705
0.894414
0.951927
0.927238
0.949833
0.97394
0.990252
0.988447
0.977068
0.95408
0.88094
0.953747
0.960425
0.833182
0.646187
0.513083
0.745369
0.829468
0.845817
0.833516
0.712232
0.689287
0.689236
0.790584
0.945426
0.986913
0.895595
0.977068
0.796286
0.530321
0.764178
0.959952
0.873341
0.409182
0.408275
0.469579
0.641497
0.6578
0.69133
0.889459
0.891141
0.876394
0.909211
0.959646
0.959077
0.65511
0.961578
0.536708
0.530818
0.620186
0.927742
0.931572
0.496288
0.409182
0.687937
0.605019
0.581713
0.553396
0.577574
0.724241
0.930737
0.988479
0.988702
0.973514
0.763684
0.630581
0.524854
0.643588
0.699143
0.892874
0.937385
0.79349
0.408275
0.69235
0.78459
0.78459
0.69454
0.424782
0.422972
0.607548
0.935915
0.989094
0.986415
0.901963
0.773246
0.692085
0.928985
0.518584
0.706145
0.937169
0.937385
0.651847
0.45011
0.685711
0.78459
0.78459
0.743649
0.431428
0.475828
0.876333
0.988975
0.98962
0.977129
0.873216
0.942364
0.934983
0.415067
0.347858
0.901848
0.937169
0.888292
0.443954
0.124907
0.622434
0.690326
0.750469
0.769009
0.768438
0.900703
0.98776
0.98962
0.98962
0.979382
0.979382
0.777895
0.203259
0.0718783
0.658773
0.937385
0.937169
0.518379
0.0481801
0.127217
0.141728
0.273015
0.577196
0.708034
0.869995
0.977876
0.98962
0.98962
0.999639
0.999838
0.999896
0.999901
0.999958
0.999976
0.99999
0.999562
0.993863
0.975546
0.955441
0.946161
0.954557
0.89285
0.619452
0.525949
0.815914
0.952219
0.980287
0.873697
0.832996
0.959972
0.97247
0.99541
0.998728
0.999176
0.999729
0.999831
0.99989
0.999896
0.99803
0.979827
0.915985
0.806579
0.64459
0.60597
0.624879
0.562093
0.526854
0.548239
0.79224
0.867517
0.778294
0.850949
0.99583
0.99943
0.986801
0.992662
0.996962
0.998529
0.998439
0.999589
0.999803
0.997387
0.974653
0.840723
0.325146
0.0676921
0.0515221
0.133231
0.320959
0.562372
0.563188
0.528991
0.667569
0.803779
0.920638
0.961222
0.997387
0.817266
0.95354
0.989768
0.994939
0.992135
0.998015
0.998683
0.993748
0.934346
0.573553
0.0681277
0.00313294
0.000972096
0.00811284
0.042348
0.199281
0.307078
0.234913
0.197153
0.375779
0.538084
0.812007
0.98656
0.192877
0.43766
0.842933
0.984755
0.981064
0.990443
0.992316
0.932099
0.616597
0.196711
0.0238666
0.000605121
0.000102513
0.000623938
0.00187758
0.00486517
0.00587362
0.0052777
0.00817114
0.0227103
0.101481
0.516663
0.955129
0.0313516
0.0580497
0.329413
0.90338
0.937778
0.983526
0.94692
0.576185
0.108833
0.030252
0.0075426
0.00019949
1.57001e-05
1.25282e-05
0.000147351
0.000844258
0.0017537
0.00193845
0.00199469
0.0020731
0.0182041
0.227456
0.786797
0.0885819
0.028116
0.096136
0.606997
0.906924
0.946786
0.641404
0.120866
0.00862909
0.0019558
0.000921518
3.91571e-05
1.3515e-06
1.67177e-06
4.47194e-05
0.000411078
0.00156501
0.0038955
0.00342076
0.002084
0.0020834
0.0526069
0.543614
0.152148
0.0138878
0.0288706
0.274384
0.541841
0.386511
0.0791339
0.00878946
0.00046816
4.65429e-05
3.04828e-05
2.8841e-06
1.18733e-06
3.36156e-06
7.18076e-05
0.000420234
0.00144741
0.00549507
0.0110267
0.00483101
0.00293619
0.0834902
0.491424
0.162135
0.00901535
0.0145496
0.0693881
0.0857202
0.0158398
0.000826272
8.33198e-05
1.57135e-05
1.14316e-06
1.11963e-06
1.12631e-06
1.26139e-06
1.09977e-05
3.96907e-05
5.0384e-05
9.65746e-05
0.00195741
0.0149556
0.0240186
0.0259417
0.0908985
0.189277
0.187457
0.00548837
0.00802478
0.0148491
0.00439047
0.000225208
7.23119e-05
1.12793e-05
1.12167e-06
1.1205e-06
1.12158e-06
1.11904e-06
1.56751e-06
6.42119e-06
1.41523e-05
1.78908e-05
1.77852e-05
0.000525151
0.0102133
0.0395176
0.0391694
0.0254644
0.00484759
0.199049
0.00451961
0.00766357
0.00386257
0.000247064
4.85458e-05
1.72459e-05
4.66619e-06
1.1205e-06
1.12066e-06
1.11985e-06
1.12103e-06
4.472e-06
4.3406e-05
0.000152549
0.000249735
0.000197614
0.000210542
0.00292907
0.0199354
0.0312227
0.00542415
0.00219909
0.0652082
0.00379112
0.00553507
0.00218076
0.000192448
5.71819e-05
3.88891e-05
1.66481e-05
1.12117e-06
1.1205e-06
1.12166e-06
3.29734e-06
1.62811e-05
9.5267e-05
0.000284339
0.000624703
0.000925475
0.00107061
0.000940749
0.00153463
0.00339695
0.00608434
0.0102856
0.0126417
0.00282901
0.0030034
0.00122541
0.000204652
9.42888e-05
7.65458e-05
1.4982e-05
1.68161e-06
4.59063e-06
1.63114e-05
5.34294e-05
9.13339e-05
0.000176423
0.000240347
0.00025532
0.00122564
0.00365362
0.00200135
0.000170362
0.000128294
0.000387872
0.00106849
0.00408043
0.00182897
0.000996605
0.000407692
0.000436364
0.000352685
0.000102468
1.63582e-05
7.36235e-06
4.98194e-05
0.000137329
0.000168094
0.000165376
5.00335e-05
2.94762e-05
4.92949e-05
0.000803007
0.00443759
0.00443761
0.00145283
4.0014e-05
7.83546e-06
7.92543e-05
0.00194879
0.00096339
0.00015212
8.91798e-05
0.000441346
0.00181818
0.000118856
1.83633e-05
1.44984e-05
8.328e-05
0.00013895
7.51735e-05
2.33565e-05
2.32241e-05
2.49684e-05
0.000142127
0.000799092
0.00362941
0.00443759
0.00378135
0.000506339
3.49618e-06
4.63025e-06
0.000699539
0.000804495
8.91686e-05
8.91764e-05
0.000399497
0.00310182
0.000145381
1.73162e-05
1.42498e-05
4.64656e-05
6.46558e-05
3.93346e-05
3.96464e-05
2.33565e-05
4.80343e-05
0.000905826
0.00069342
0.000666549
0.00412906
0.00437918
0.00112246
1.53277e-05
7.55213e-08
0.000428527
0.000817101
8.92242e-05
8.91798e-05
0.000644752
0.00308535
0.000191458
1.41756e-05
1.41726e-05
1.41756e-05
1.48176e-05
4.36812e-05
9.94825e-05
3.93418e-05
4.82616e-05
0.00162964
0.00023065
7.69943e-05
0.00107642
0.00288874
0.00094994
5.98037e-06
4.43924e-09
0.00038211
0.00076584
8.91726e-05
0.000182251
0.00310298
0.00298584
0.000332535
1.81493e-05
1.41756e-05
1.41726e-05
1.42e-05
6.18555e-05
0.000100343
5.09824e-05
4.19246e-05
0.00164741
0.000200074
4.36901e-05
0.000172384
0.000451751
7.67358e-05
1.52924e-07
2.75657e-09
0.000374975
0.000334124
0.000221814
0.000950952
0.00365676
0.00171009
0.000935116
0.000188588
4.05198e-05
1.42e-05
1.429e-05
6.57375e-05
7.39283e-05
2.9439e-05
2.78994e-05
0.00105379
0.000349081
4.60441e-05
3.2309e-05
3.10275e-05
2.96206e-06
3.99879e-07
1.35836e-08
0.000539302
0.000332638
0.000360606
0.00342056
0.00366236
0.000703637
0.000653759
0.000400792
0.000151694
5.1486e-05
1.8633e-05
3.00838e-05
4.31526e-05
6.60766e-05
0.000155397
0.000432521
0.000815125
0.000220215
4.10996e-05
5.08436e-05
1.2151e-05
6.61064e-07
2.36072e-08
0.00221127
0.000440655
0.000375724
0.00355865
0.00277745
0.000196339
0.000105888
0.000161663
9.48274e-05
3.58637e-05
1.99148e-05
2.76844e-05
0.000237003
0.00147562
0.00211402
0.00128619
0.00100377
0.000482982
0.000131626
0.000163432
2.39581e-05
2.50328e-07
1.9046e-08
0.00570082
0.00148118
0.000555993
0.00350442
0.00100283
3.18372e-05
2.50544e-05
3.5985e-05
5.32143e-05
3.48636e-05
2.36926e-05
7.6757e-05
0.00200044
0.00798213
0.00655954
0.00232183
0.000964629
0.000377434
0.000190566
0.000178299
3.50246e-05
2.22619e-07
1.82061e-08
0.00924623
0.00352632
0.00199959
0.0014183
0.000151897
2.72347e-05
3.05501e-05
0.000314176
0.0006116
0.000411288
0.000688325
0.00608139
0.00804435
0.00809218
0.00462886
0.00156438
0.00130679
0.000527222
0.000240401
0.000129286
1.13237e-05
1.53066e-07
2.93346e-09
0.0277258
0.0027288
0.0010804
0.000149435
6.40932e-05
0.000153807
0.000940912
0.00665864
0.00885964
0.00886632
0.00520542
0.00235579
0.00298204
0.00233336
0.00152084
0.00329078
0.00228123
0.000511479
0.000234881
2.21875e-05
3.95956e-06
3.26895e-07
2.91398e-09
0.191658
0.00116665
0.000209338
0.000125078
0.000103404
0.000367121
0.00381925
0.00885964
0.00886632
0.00885964
0.0049004
0.000801579
0.000218408
0.00021535
0.0012909
0.00438142
0.002558
0.000439413
0.000256519
2.60754e-05
6.68271e-06
4.95274e-07
4.94671e-09
0.27582
0.00127232
0.00123765
0.00260505
0.00532729
0.00545548
0.00552977
0.00354484
0.00188548
0.0017558
0.00133085
0.000275299
0.00010901
0.000426074
0.00390233
0.00437674
0.00167936
0.000246085
0.00019367
6.56778e-05
1.27932e-05
5.20165e-07
5.82023e-09
0.27582
0.0125513
0.00911999
0.00580894
0.00207871
0.00132815
0.000713797
0.000510574
0.000385059
0.000195929
0.000132019
9.93002e-05
0.000104767
0.00174694
0.00459717
0.00416633
0.000546195
8.10105e-05
9.61983e-05
5.87699e-05
8.08863e-06
2.99632e-07
5.25443e-09
0.204738
0.0243791
0.00466878
0.00221075
0.00128408
0.000494757
0.000177297
0.00010687
9.93002e-05
9.9336e-05
9.93002e-05
9.9336e-05
0.000162129
0.00321032
0.00459567
0.00270553
8.66624e-05
6.29307e-05
7.85896e-05
2.24051e-05
2.87623e-06
1.14332e-07
2.08886e-09
0.042951
0.00975125
0.001799
0.00153233
0.00151198
0.000187006
0.000179389
0.000210685
0.000118766
0.000132647
0.000249455
0.000245195
0.000541282
0.00252936
0.00398873
0.000886307
6.29298e-05
6.29075e-05
6.60557e-05
1.42307e-05
1.04874e-06
2.26316e-08
4.89704e-10
0.00227358
0.00117128
0.00176583
0.00172907
0.000603252
0.000107731
0.000357091
0.000737577
0.000734937
0.000428525
0.000152155
0.000202414
0.000482586
0.00102201
0.00135269
0.000134457
6.29075e-05
0.000106198
3.7528e-05
8.186e-06
7.90802e-07
2.01404e-08
4.89624e-10
0.000125069
0.000306427
0.00160129
0.000800183
9.11203e-05
8.88739e-05
0.0005569
0.000734937
0.000643464
0.000140105
3.50883e-05
3.7121e-05
0.000133749
0.000176384
0.00016372
6.29075e-05
6.29298e-05
0.00015666
6.40786e-05
1.45311e-05
1.13875e-06
2.65189e-08
1.96352e-09
0.000125069
0.000189736
0.000763637
0.000211155
4.07236e-05
3.45942e-05
0.000161262
0.000249348
0.000112064
1.5733e-05
5.27838e-06
5.2645e-06
8.74556e-06
1.10346e-05
2.63096e-05
8.17106e-05
0.000264737
0.00032366
0.000150283
2.26872e-05
1.13918e-06
2.47722e-08
2.06743e-08
0.000290781
0.000570306
0.000214395
4.67831e-05
7.97837e-06
1.48378e-05
0.000102751
0.000246807
0.000103854
1.42161e-05
5.2645e-06
5.27189e-06
5.2645e-06
2.38731e-05
7.05739e-05
0.000309625
0.000417044
0.000417007
0.000213549
2.67822e-05
6.93395e-07
2.3473e-08
1.67855e-07
0.00365505
0.000682963
2.5981e-05
2.97098e-06
6.70067e-07
2.6246e-06
4.76398e-05
0.000170559
0.000211071
0.000171175
2.55457e-05
1.48137e-05
7.06726e-05
0.000203711
0.00037613
0.000416007
0.000416007
0.000204118
2.63834e-05
8.177e-07
2.17728e-08
2.54362e-08
8.25555e-07
0.0112869
0.00037093
1.07311e-06
1.04191e-07
8.30035e-08
8.57431e-08
1.54034e-06
2.71294e-05
0.000114935
0.000177613
7.63636e-05
3.36324e-05
0.000119912
0.000223507
0.000377523
0.000416007
0.000386248
0.00014097
1.38067e-05
2.74376e-07
2.15625e-08
1.55036e-07
2.48091e-06
0.0116733
0.000108161
7.9074e-07
7.19195e-07
1.37819e-06
3.24536e-08
1.25844e-09
1.95749e-07
7.56244e-06
3.14879e-05
2.08831e-05
8.6903e-06
3.76334e-05
6.38382e-05
0.000133006
0.00019537
9.49191e-05
8.26169e-06
7.88037e-08
7.20731e-10
7.10285e-08
9.68318e-07
3.58947e-06
0.0105667
1.38338e-05
8.14392e-07
4.81834e-06
1.02059e-05
5.73021e-08
3.50512e-11
2.59678e-10
4.31241e-08
4.20136e-07
2.1294e-07
9.49059e-08
1.06352e-06
2.11012e-06
1.3958e-05
1.45667e-05
4.58136e-06
2.90286e-07
2.06388e-09
5.02497e-10
1.07637e-07
2.39905e-06
3.9005e-06
0.00464851
6.17068e-05
9.93639e-07
7.01131e-06
1.40738e-05
1.14848e-07
1.15743e-12
7.24645e-14
3.89839e-13
7.68651e-12
5.06232e-13
1.01237e-11
9.48693e-10
4.12034e-09
1.75849e-07
7.1967e-08
2.58608e-09
2.6016e-11
8.20434e-12
4.57355e-10
1.78892e-08
1.32986e-06
3.94407e-06
0.000777567
4.30989e-05
4.65109e-06
2.88222e-05
8.52484e-06
5.02618e-09
7.5441e-14
1.02159e-15
1.09743e-16
8.28158e-17
6.88192e-17
4.9576e-17
7.35205e-15
1.31091e-13
1.21204e-10
1.96471e-11
5.44246e-13
2.51963e-12
2.7645e-11
1.87623e-10
8.92745e-09
9.85339e-07
5.4449e-06
4.30216e-05
1.88094e-05
2.97182e-05
0.000127278
3.78445e-06
6.74943e-11
2.37351e-13
4.69988e-16
6.75445e-17
6.14454e-17
4.88442e-17
3.6018e-17
2.19584e-16
1.79877e-16
3.11457e-14
2.39861e-13
3.32113e-13
8.98272e-12
1.37159e-10
2.72453e-09
8.86933e-08
3.29422e-06
6.14054e-06
1.5554e-05
1.5554e-05
3.69965e-05
0.000128254
1.87733e-07
1.34087e-11
2.48313e-13
1.20894e-15
4.64227e-17
3.99024e-17
3.24364e-17
2.22904e-17
4.19063e-16
1.42219e-15
1.12509e-13
7.7661e-13
1.51322e-12
7.40094e-12
1.60301e-10
4.97226e-09
4.55959e-07
5.18785e-06
6.16532e-06
1.5554e-05
3.88706e-05
9.89431e-05
2.89694e-05
4.25565e-10
7.68147e-14
7.43457e-17
1.24822e-17
1.55473e-17
1.77212e-17
1.53284e-17
1.21235e-17
3.1446e-16
3.48382e-15
1.54301e-13
1.2008e-12
2.07013e-12
3.45298e-11
8.88667e-11
4.02194e-09
5.36326e-07
6.16085e-06
2.74834e-06
0.987293
0.995417
0.99935
0.999566
0.999473
0.999377
0.997885
0.961767
0.997135
0.963196
0.784776
0.403677
0.89813
0.508445
0.180372
0.110391
0.842662
0.305941
0.0540104
0.0304586
0.725386
0.126434
0.0136947
0.00774091
0.609556
0.069564
0.0100354
0.00706142
0.41294
0.0512923
0.0124591
0.00567357
0.0808825
0.0187054
0.0079025
0.00374109
0.0021835
0.00223306
0.00209776
0.00380118
0.0019592
0.00182643
0.00173589
0.00173824
0.0102754
0.00590103
0.00236296
0.00149257
0.00118419
0.00165305
0.00348885
0.00402018
0.00034232
0.000970719
0.00187429
0.00246093
1.48914e-05
3.25203e-05
9.73976e-05
0.000200807
2.66376e-07
7.12742e-07
3.49237e-06
9.57686e-06
3.3772e-09
4.65362e-09
8.30398e-09
1.34597e-08
1.72941e-13
1.72941e-13
1.72941e-13
1.72941e-13
1.72941e-13
1.72941e-13
1.72941e-13
1.72941e-13
1.72941e-13
1.72941e-13
1.72941e-13
1.72941e-13
1.7441e-13
2.11008e-13
1.72941e-13
1.72941e-13
5.2568e-13
1.87644e-12
1.78099e-13
1.72941e-13
1.35147e-12
1.07723e-11
6.48074e-13
1.72941e-13
1.89469e-12
1.91009e-11
4.31492e-12
1.82548e-11
1.04596e-12
2.07044e-11
1.62524e-11
1.39299e-09
1.72941e-13
1.82036e-11
3.57571e-11
8.13307e-09
1.72941e-13
1.30662e-11
3.74362e-11
6.54555e-10
1.72941e-13
2.24165e-11
3.00513e-10
4.57236e-09
5.7925e-11
4.81884e-10
1.09929e-08
4.28815e-08
7.00982e-10
5.61165e-09
1.06239e-07
3.85525e-07
5.84719e-09
7.18857e-08
5.36982e-07
1.08339e-06
6.54046e-08
4.07463e-07
1.11502e-06
1.11244e-06
6.33365e-07
1.46591e-06
1.46097e-06
6.18894e-07
2.31367e-06
1.90867e-06
6.3325e-07
4.55198e-08
2.32672e-06
1.05419e-06
2.01474e-07
1.36408e-08
2.25068e-06
7.79325e-07
9.71448e-08
3.11351e-09
2.34545e-06
8.4251e-07
1.02991e-07
2.30151e-09
2.21779e-06
6.81164e-07
7.31724e-08
1.93588e-09
2.72193e-06
6.22825e-07
4.32372e-08
6.82964e-10
3.70077e-06
9.74022e-07
8.4043e-08
1.64664e-09
4.60354e-06
1.32735e-06
1.00378e-07
1.06106e-09
1.58291e-07
1.52147e-09
1.32529e-12
1.00766e-16
0.977411
0.71575
0.402388
0.105224
0.0272625
0.255112
0.912332
0.815232
0.185316
0.0261541
0.0279348
0.0245293
0.0541716
0.141024
0.253618
0.616697
0.855758
0.964524
0.98962
0.561366
0.0947929
0.0623071
0.044714
0.0272605
0.0601892
0.389274
0.227244
0.0693205
0.0188589
0.0109261
0.0109195
0.0251133
0.055315
0.112845
0.176423
0.263495
0.758937
0.988658
0.133692
0.0410773
0.0272622
0.0272605
0.0272622
0.0272605
0.0428444
0.0297091
0.0361038
0.0152585
0.0127865
0.0109261
0.0245346
0.0620312
0.0745951
0.0516399
0.110697
0.359678
0.945095
0.0766522
0.0464612
0.0845498
0.12047
0.0776141
0.0273955
0.0220835
0.0220002
0.0220835
0.0278983
0.0466994
0.0227027
0.012856
0.0110566
0.00763405
0.0221448
0.0887733
0.219557
0.490666
0.0135066
0.0121743
0.102039
0.241755
0.248025
0.244887
0.112227
0.0964482
0.0277297
0.0495599
0.0565694
0.0564604
0.0303335
0.00456313
0.00281676
0.0203553
0.128394
0.415055
0.561244
0.00793756
0.00506064
0.0053118
0.00678759
0.0222074
0.0348001
0.0719344
0.0709657
0.026538
0.0442356
0.0372038
0.0511224
0.0339158
0.0059489
0.00284708
0.00743949
0.0538896
0.298182
0.568678
0.00536878
0.00496957
0.00383276
0.00312838
0.00439702
0.00750121
0.0147229
0.0269463
0.0248167
0.0115683
0.0019576
0.00943684
0.00809086
0.00322404
0.00173068
0.00202904
0.00448447
0.0391785
0.132184
0.00540575
0.00939413
0.0035177
0.00109583
0.00246078
0.00802811
0.01397
0.0127976
0.00759165
0.000372967
0.000232287
0.00397498
0.0256475
0.00431413
0.000790499
0.00034162
0.000400689
0.000488989
0.00124899
0.00801937
0.00942398
0.0032699
0.00108749
0.00454853
0.00725656
0.007646
0.00502675
0.000389877
2.32276e-05
6.44755e-05
0.00259579
0.0257083
0.0108642
0.00126473
8.48268e-05
6.75634e-05
0.000133302
0.000261384
0.00767053
0.00899627
0.00198067
0.000880309
0.000694906
0.000309227
0.00049152
7.74028e-05
2.36984e-05
2.24475e-06
2.13691e-05
0.00210769
0.0157115
0.0169985
0.00305401
0.000145132
6.80857e-05
0.00060075
0.00034884
0.00360019
0.00486088
0.0018498
0.000380039
0.000164188
1.11886e-05
5.50881e-06
1.25663e-06
4.7916e-07
4.07275e-07
5.8924e-05
0.00107662
0.0018735
0.0086202
0.00332224
0.00017281
4.31426e-05
0.00112249
0.00176854
0.00117925
0.00124347
0.000964566
7.61693e-05
3.7539e-05
1.52459e-06
1.56373e-07
1.81438e-07
1.58422e-08
8.57464e-07
0.000158829
0.00125885
0.0012858
0.00184847
0.0022743
0.000141068
2.55184e-05
0.000960563
0.00370788
0.00392309
0.000383313
0.000187083
3.52914e-05
4.04935e-06
3.60436e-07
2.7517e-08
3.85352e-08
5.46653e-09
1.95149e-06
0.000178662
0.00132172
0.00214553
0.000403673
0.000498901
4.40592e-05
2.54616e-05
0.000727438
0.0046717
0.00207632
0.000408983
0.000128756
6.18411e-05
4.43201e-06
9.20709e-08
7.27878e-09
3.03125e-09
2.57643e-09
1.15211e-07
6.8307e-05
0.00153767
0.00358196
0.00265651
0.000125473
4.14476e-05
4.40803e-05
0.00179378
0.00500113
0.000363451
0.000401364
0.000281154
8.95422e-05
8.06843e-06
1.25403e-07
1.29609e-09
5.9181e-10
1.48711e-09
3.17655e-08
1.0917e-06
0.000217006
0.00246514
0.00492278
0.00360576
0.00390487
0.00804224
0.00871332
0.00587996
3.33649e-05
6.22332e-05
7.55506e-05
3.73636e-05
5.54478e-06
1.32537e-07
6.22448e-10
5.91553e-10
9.73831e-10
1.18501e-08
9.54704e-08
7.66668e-07
2.95781e-05
0.000677414
0.00237373
0.00291612
0.00213921
0.00280763
0.00335259
1.09438e-08
3.92455e-08
7.36315e-07
1.18866e-06
8.36155e-07
1.21207e-07
9.77687e-09
2.98603e-09
1.09017e-09
5.6483e-09
3.51862e-08
4.48063e-07
5.06848e-06
2.75713e-05
0.000137351
0.000152247
0.000135288
0.000540174
0.00103831
2.83512e-09
3.89787e-08
6.08457e-08
1.36783e-06
4.18717e-06
1.19224e-06
2.40799e-07
9.12169e-08
2.16393e-08
5.69059e-09
3.20756e-08
5.17863e-07
7.66743e-06
2.78302e-05
4.96912e-05
5.88462e-05
3.12417e-05
4.64565e-05
0.000133084
7.01551e-09
2.25756e-07
7.07526e-07
5.24349e-06
5.88673e-06
3.90522e-06
1.58581e-06
6.30243e-07
2.82789e-07
2.374e-08
1.91989e-08
6.28396e-07
1.73993e-05
0.000109064
0.000230688
0.000199253
5.31504e-05
3.10917e-05
3.10917e-05
5.66764e-09
3.37456e-07
1.85434e-06
5.53327e-06
5.88673e-06
5.88673e-06
3.48548e-06
1.32375e-06
9.72481e-07
3.48937e-07
1.99655e-08
5.27993e-08
1.53611e-05
0.000166045
0.000248297
0.000248213
0.000140098
8.83927e-05
7.97679e-05
4.44864e-09
3.55571e-07
1.52567e-06
1.08537e-06
2.92349e-06
5.30801e-06
2.98195e-06
1.03609e-06
1.54496e-06
1.55213e-06
3.76858e-07
4.68984e-08
1.11057e-06
0.000105999
0.000188788
0.000213153
0.000249299
0.000165977
0.00013901
2.41276e-08
1.41788e-07
2.70169e-07
1.16364e-07
1.53592e-07
1.19758e-06
3.31137e-07
9.62473e-08
5.37152e-07
1.77308e-06
1.36332e-06
1.26097e-07
5.51793e-08
3.15507e-05
4.77524e-05
0.00014904
0.000751267
0.000617838
6.02601e-05
8.26563e-08
6.02073e-07
2.69317e-07
7.42836e-08
1.36327e-08
7.55739e-08
3.46694e-08
4.50893e-09
7.8165e-09
8.21008e-07
2.20888e-06
7.46551e-07
5.89981e-08
3.98398e-06
1.06287e-05
0.000180862
0.00079579
0.00079579
9.32334e-05
1.06569e-07
7.54012e-07
7.42123e-07
1.86436e-07
9.72217e-09
2.41251e-09
2.24344e-09
1.03865e-09
1.23532e-09
2.92362e-08
1.61715e-06
2.6673e-06
1.22454e-06
3.38869e-07
1.34432e-06
7.38172e-05
0.00079579
0.000768604
0.000122183
9.3948e-08
7.46907e-07
4.87975e-07
1.74955e-07
1.46501e-08
6.84116e-10
7.7817e-10
8.4586e-10
9.91683e-10
2.22109e-08
2.68066e-06
4.37082e-06
1.55122e-06
3.21113e-07
3.75397e-06
0.000386763
0.000770973
0.000248643
0.000305216
2.20252e-07
2.78803e-07
6.71119e-08
2.09356e-08
6.33377e-09
6.87661e-10
9.82455e-10
1.37687e-09
1.54544e-09
1.22409e-08
2.16691e-06
5.54898e-06
2.61049e-06
3.22475e-07
4.42711e-06
0.000368136
0.000263553
7.58772e-05
0.000194398
3.42449e-07
1.48072e-07
2.31814e-08
2.05961e-09
5.92462e-10
3.72977e-10
2.29644e-09
1.86522e-08
5.45732e-08
3.86364e-08
8.52442e-07
1.69147e-05
1.16749e-05
1.6478e-06
4.04338e-06
0.000164688
7.09136e-05
7.15567e-05
9.82604e-05
3.43455e-07
1.41628e-07
1.82158e-08
7.43442e-10
4.71947e-11
3.11374e-10
1.80038e-08
1.86945e-07
8.08424e-07
4.78814e-07
1.30266e-06
1.90211e-05
1.92267e-05
4.13885e-06
4.02255e-06
4.48823e-05
3.97912e-05
8.08899e-05
5.033e-05
2.75164e-07
8.11752e-08
7.14171e-09
2.70199e-10
2.26114e-11
7.88693e-10
7.16884e-08
7.73494e-07
3.52212e-06
4.82756e-06
3.1268e-06
6.6608e-06
1.18482e-05
3.35725e-06
2.03701e-06
8.11684e-06
3.05158e-05
0.000166839
3.58251e-05
3.46039e-07
3.51095e-08
1.36914e-09
1.30776e-10
1.44863e-11
1.83668e-09
1.79251e-07
1.81094e-06
6.50988e-06
1.79982e-05
3.80267e-05
1.91361e-05
9.54132e-06
2.85345e-06
1.7911e-06
1.78242e-06
4.71633e-05
0.000166658
3.74561e-05
4.68198e-07
1.64583e-08
2.20819e-10
4.58177e-11
7.51405e-12
3.74805e-09
2.85278e-07
2.36452e-06
6.65445e-06
3.0615e-05
9.875e-05
9.88187e-05
2.00099e-05
9.40733e-06
1.95404e-06
1.61224e-06
3.30741e-05
0.000160939
4.59705e-05
2.47882e-07
5.22128e-09
9.32082e-11
1.23056e-11
2.51212e-12
7.90715e-09
3.38545e-07
1.84774e-06
9.32063e-06
3.55068e-05
0.000118739
0.000124621
9.16228e-05
1.97019e-05
1.34566e-06
1.34373e-06
1.48222e-05
7.80732e-05
4.53074e-05
5.48564e-08
2.4721e-10
3.40183e-11
2.39775e-12
9.8675e-13
1.43619e-08
3.8874e-07
2.81276e-06
2.55737e-05
9.89764e-05
0.000124621
0.000124623
7.36063e-05
1.05162e-05
1.34373e-06
7.4019e-06
6.2881e-05
0.000146207
7.14316e-05
2.32317e-09
3.72576e-11
8.1898e-12
2.86151e-13
6.79474e-13
2.28429e-08
5.2116e-07
5.36425e-06
4.24971e-05
0.000114728
0.000124623
6.97885e-05
3.62612e-05
3.63397e-05
0.00025738
0.000356416
0.000415569
0.000404768
0.000112938
5.41177e-10
7.97604e-12
2.11355e-12
6.99355e-14
1.29163e-12
3.43326e-08
5.91448e-07
5.52638e-06
2.89581e-05
6.50651e-05
6.86089e-05
1.5329e-05
4.05489e-05
0.000207842
0.000803594
0.000805483
0.000462172
0.0002808
8.12963e-05
1.2532e-10
1.60627e-12
1.93563e-13
7.01951e-15
7.60608e-12
4.04862e-08
4.43816e-07
1.241e-06
3.65834e-06
1.33402e-05
1.55989e-05
1.5809e-05
0.000136837
0.000495666
0.000451274
0.000125461
0.000147237
7.45625e-05
2.95365e-05
8.09344e-11
3.8621e-13
1.38219e-14
1.96573e-15
8.56969e-12
3.81192e-09
1.00425e-07
4.86416e-07
7.87849e-07
9.25783e-07
4.54762e-06
4.09161e-05
0.000247799
0.000498106
0.000115194
1.71684e-05
9.94496e-06
6.83859e-06
4.16117e-06
8.03033e-11
8.35737e-14
1.40436e-15
8.01532e-16
1.12512e-12
7.65034e-10
4.93861e-08
3.85246e-07
7.53784e-07
9.59859e-07
1.03144e-05
8.80163e-05
0.000356785
0.000499443
0.00018814
1.10646e-05
1.82204e-07
1.65066e-07
1.54617e-07
2.39672e-11
2.96672e-14
4.96227e-16
3.75786e-16
3.0286e-13
3.05209e-10
2.64827e-08
2.40947e-07
7.16693e-07
1.28933e-06
6.42848e-06
6.33407e-05
0.000249022
0.000467924
0.000278158
3.58657e-05
1.3216e-07
2.99083e-09
3.05913e-09
2.82908e-11
1.93962e-14
6.75017e-17
7.72677e-17
7.81163e-16
3.36683e-12
4.83272e-10
1.23876e-08
1.28686e-07
6.53708e-07
2.08192e-06
1.28499e-05
4.97635e-05
5.13617e-05
0.000121
0.000195941
5.95644e-06
1.51531e-08
2.46907e-09
2.04458e-11
7.33484e-15
2.71415e-18
7.33697e-18
8.64258e-19
2.30193e-15
2.43776e-12
3.9827e-10
1.01866e-08
5.61868e-08
1.40594e-07
1.71813e-07
1.84984e-06
5.46982e-07
4.43004e-06
0.000167172
9.5303e-06
6.74645e-08
2.17922e-09
1.67074e-18
2.96353e-20
6.65662e-21
1.51848e-20
1.87597e-19
6.21073e-19
2.13442e-18
8.90484e-18
2.03165e-16
2.33006e-13
4.07351e-11
2.62735e-11
4.82448e-09
1.78417e-09
5.26872e-07
6.44817e-05
1.07044e-05
3.74957e-08
6.58119e-10
)
;

boundaryField
{
    leftWall
    {
        type            zeroGradient;
    }
    rightWall
    {
        type            zeroGradient;
    }
    lowerWall
    {
        type            zeroGradient;
    }
    atmosphere
    {
        type            inletOutlet;
        inletValue      uniform 0;
        value           nonuniform List<scalar> 
46
(
1.5554e-05
3.88706e-05
9.89431e-05
2.89694e-05
0
0
0
0
0
0
0
0
0
0
0
0
0
3.45298e-11
0
0
0
6.16085e-06
2.74834e-06
0
0
0
0
0
0
0
0
0
0
0
0
0
0
0
0
0
0
0
6.44817e-05
1.07044e-05
3.74957e-08
6.58119e-10
)
;
    }
    defaultFaces
    {
        type            empty;
    }
}


// ************************************************************************* //
