/*--------------------------------*- C++ -*----------------------------------*\
| =========                 |                                                 |
| \\      /  F ield         | foam-extend: Open Source CFD                    |
|  \\    /   O peration     | Version:     4.1                                |
|   \\  /    A nd           | Web:         http://www.foam-extend.org         |
|    \\/     M anipulation  |                                                 |
\*---------------------------------------------------------------------------*/
FoamFile
{
    version     2.0;
    format      ascii;
    class       volScalarField;
    location    "0.95";
    object      pd;
}
// * * * * * * * * * * * * * * * * * * * * * * * * * * * * * * * * * * * * * //

dimensions      [1 -1 -2 0 0 0 0];

internalField   nonuniform List<scalar> 
2268
(
1131.68
1130.68
1129.44
1120.83
1116.53
1093.03
1077.91
1053.26
1035.15
1008.39
988.773
945.335
899.268
863.377
825.317
824.428
813.207
840.694
846.888
863.384
868.871
880.403
878.355
1131.97
1131.15
1129.24
1121.54
1117.84
1094.29
1078.88
1052.66
1034.46
1011.47
986.437
940.513
900.553
859.403
818.672
823.314
809.45
841.766
846.761
864.052
868.513
881.309
878.595
1131.77
1131.77
1130.17
1121.77
1119.28
1092.28
1078.82
1054.48
1040.35
1016.69
982.407
946.977
895.356
848.312
812.287
813.178
804.577
839.479
845.526
863.615
870.529
884.622
879.273
1131.9
1133.01
1129.07
1125.48
1118.92
1096.9
1077.2
1061.55
1027.62
1019.16
984.351
943.557
884.794
835.418
795.244
805.507
798.731
838.394
846.354
866.437
871.625
887.678
879.255
1131.78
1132.62
1132.39
1126.11
1122.25
1094.64
1082.02
1059.36
1036.33
1022.87
988.14
939.509
884.324
826.784
769.569
778.646
791.693
838.575
845.638
867.142
875.461
889.142
880.115
1131.04
1135.11
1134.04
1133.25
1124.22
1097.07
1088.94
1058.82
1041.58
1025.54
990.997
937.725
864.154
795.4
726.207
737.672
779.876
832.779
850.491
866.714
875.401
894.779
881.617
1131.65
1134.47
1132.65
1131.12
1135.18
1093.42
1097.5
1062.98
1037.07
1033.91
991.141
936.789
846.842
735.221
663.715
678.98
755.261
825.217
848.534
868.827
881.591
889.428
880.975
1129.34
1134.93
1140.66
1137.11
1134.27
1098.79
1104.56
1079.18
1042.21
1037.25
979.583
925.468
810.048
755.934
601.26
598.379
739.082
801.967
855.663
858.674
857.771
873.915
878.839
566.646
435.842
438.851
530.322
579.234
541.418
476.935
434.449
414.663
463.43
532.088
489.861
459.835
476.789
502.794
550.366
588.014
637.598
636.093
550.911
403.057
400.868
524.273
590.919
547.257
452.721
401.835
389.516
453.456
542.511
493.691
435.849
455.108
489.635
536.693
593.393
642.623
632.819
511.265
366.91
364.328
473.364
581.325
528.762
426.202
379.208
342.767
406.239
476.926
447.704
468.737
464.465
503.419
558.778
570.497
645.42
607.236
538.881
330.547
344.454
455.505
540.241
567.081
449.965
371.139
370.413
377.099
430.089
409.508
378.331
440.575
505.418
570.131
593.905
652.115
632.95
482.216
365.861
334.345
437.188
492.432
562.172
520.342
363.692
368.952
390.384
480.714
434.15
346.35
365.486
414.314
555.029
592.844
658.831
673.243
544.594
441.085
458.083
331.057
392.966
540.858
503.742
419.819
291.658
320.08
479.493
459.503
410.798
345.962
362.656
544.667
616.352
672.763
700.731
581.112
535.463
470.591
246.028
232.015
528.415
492.096
497.89
284.671
107.433
322.26
361.814
397.497
445.942
458.055
541.315
626.737
663.066
704.914
617.916
599.014
390.995
144.169
90.2044
360.781
593.947
516.25
319.672
77.3917
106.035
117.258
178.731
339.783
419.833
530.177
639.132
678.265
724.071
1130.04
1138.66
1136.8
1134.41
1143.44
1129.74
1088.45
1087.08
1022.87
994.404
936.965
901.347
857.635
755.371
472.175
387.403
631.226
811.395
826.21
809.206
793.504
886.988
859.024
1111.9
1120.65
1152.61
1163.63
1134.87
1155.53
1116.09
1084.53
999.992
954.471
771.503
576.689
492.586
452.288
344.204
492.038
522.511
696.702
772.375
732.943
757.65
845.265
858.837
1107.54
1127.55
1143.61
1178.49
1148.09
1131.82
1142.86
1097.79
990.896
784.169
314.107
65.1021
48.7205
115.38
267.943
504.614
523.52
520.201
604.334
729.387
854.288
910.185
872.558
924.552
1090.76
1179.37
1217.59
1192.91
1210.27
1096.67
1083.66
952.913
551.29
69.0798
6.71403
4.02524
11.4676
39.5341
190.279
302.434
236.001
198.79
370.018
545.422
819.906
982.622
295.818
553.25
972.351
1213.49
1211.82
1234.04
1198.57
1063.53
678.979
214.299
27.7016
3.31323
2.87722
2.93959
3.27196
7.78193
9.63095
10.4843
13.8567
28.255
115.212
545.095
1023.41
112.76
132.582
467.307
1183.58
1298.71
1283.03
1194.42
702.624
133.888
37.197
10.7744
2.33148
2.23655
1.97028
1.82094
2.97663
4.49383
6.16176
6.81059
5.89027
24.9038
269.263
939.147
175.456
81.193
166.338
835.261
1266.34
1284.35
853.059
159.513
11.0564
2.69857
2.3242
1.82342
1.75266
1.68497
1.56562
2.02464
3.65335
7.34935
6.89232
4.08316
3.91279
69.4877
707.022
253.169
44.4589
74.7744
434.209
799.288
566.095
116.248
12.251
0.209925
0.131682
0.650516
1.26917
1.38692
1.41669
1.30834
2.01388
3.30906
9.25151
16.6767
7.09052
4.58177
118.072
691.628
275.912
28.5857
38.678
117.023
136.874
25.0184
1.54656
-0.140716
-0.371617
0.0178144
0.416615
0.944835
0.984737
1.03687
1.03907
0.960889
1.0243
4.12905
23.54
33.9016
38.8903
135.717
301.958
326.697
19.9839
21.8283
27.8906
8.02532
0.720428
0.336179
0.0178249
-0.355274
0.00701175
0.354093
0.366614
0.358042
0.518851
0.281163
0.143049
0.479402
1.34445
15.4631
60.2995
68.6183
42.4632
8.49714
364.989
14.7617
14.562
7.71089
0.906658
0.502588
0.325452
0.208182
-0.331346
-0.48025
-0.363889
-0.523509
-0.303052
-0.212433
-0.320902
0.165393
0.737677
0.65766
5.92469
38.5143
58.684
10.9298
5.28315
127.014
8.31885
12.3872
4.60311
0.809077
0.497583
0.273222
0.0713455
-0.199537
-0.74843
-0.82459
-1.13349
-0.837391
-0.753362
-0.365139
0.538013
1.56407
2.6182
3.79696
5.69747
8.99335
13.5828
21.5228
24.1803
4.62061
6.31134
2.78767
0.697171
0.447628
0.32726
0.0740365
-0.121528
-0.428972
-0.86629
-1.38911
-1.1576
-1.07141
-0.566244
-0.291581
1.82389
7.63384
6.62477
3.473
2.87463
2.9689
3.95046
7.53367
3.18982
1.97392
0.811166
1.08054
1.14609
0.281333
-0.278733
-0.528508
-0.715829
-0.832706
-1.40679
-1.2571
-1.55757
-1.27891
-0.884189
0.892966
10.0299
11.5983
5.67822
2.32163
1.76311
1.68192
4.39457
2.16952
0.3615
0.272553
0.911993
4.04025
-0.0649338
-0.704808
-0.920078
-0.82899
-1.3584
-2.23377
-2.13641
-1.82017
-1.39047
-0.818326
0.779063
8.31613
11.2
10.2617
2.87872
1.54698
1.41462
1.92288
2.25311
0.188453
-0.237983
1.04245
7.34326
0.109761
-0.704147
-1.36399
-1.79566
-1.83635
-2.52443
-2.69342
-2.10117
-1.40295
1.24623
0.938006
0.989506
9.22444
10.9036
3.9055
1.16285
1.17752
1.56695
2.54867
0.423416
0.235546
1.97043
7.53849
0.232748
-0.518623
-1.23967
-2.09763
-2.57569
-2.75775
-2.77695
-2.36546
-1.42533
3.36994
0.171157
-0.504752
1.42898
6.34565
2.75835
0.845794
0.951905
1.78186
2.8031
0.861745
1.02733
9.05332
7.85568
0.708104
-0.360255
-1.15484
-1.86829
-2.43244
-2.27397
-2.27884
-2.19958
-1.26721
4.25135
0.468918
-0.109669
0.242882
0.920324
0.52553
0.848877
0.929095
2.03812
1.95294
1.47741
3.15982
9.67966
4.3867
2.25667
-0.405728
-1.25673
-1.37656
-1.17047
-1.40229
-1.19973
-1.44869
-1.3325
2.59973
1.10103
0.56573
0.332758
0.355861
0.575733
0.785215
0.836382
2.7191
2.05911
2.07795
10.7801
10.6951
1.95768
2.17843
0.381645
-0.15651
-0.0805556
-0.404697
-0.767156
-0.897451
-0.772986
-0.56508
0.974625
2.90569
1.55415
0.957643
0.891483
0.731658
0.828032
0.743444
7.68994
2.21358
2.02009
11.5344
8.08782
0.511154
0.531416
0.907779
0.773469
0.245628
-0.10454
-0.3785
0.142527
4.14364
6.13482
4.68038
4.02565
2.6043
1.47377
1.34139
0.858025
0.789984
0.810268
18.9976
4.86029
2.6068
12.205
4.00139
0.702252
0.646269
0.801395
0.656408
0.296324
0.110386
0.0574084
5.92835
25.2739
21.6664
8.51948
4.27343
2.42041
1.62559
1.39934
0.914642
0.751541
0.741772
31.1749
11.3712
7.92468
5.52484
1.07823
0.674555
0.729821
1.8181
2.4028
1.71973
2.43634
19.5909
26.4982
27.1503
16.2831
6.32333
5.46617
2.91497
1.7555
1.21022
0.717989
0.648409
0.691627
95.6427
9.92051
5.32004
1.52807
1.17694
1.23855
3.57567
24.1566
30.2474
30.0149
17.8827
7.69072
10.0522
8.08333
5.78372
12.2096
8.33195
2.64601
1.59109
0.721545
0.557931
0.551072
0.587148
682.042
4.50492
2.30339
1.43529
1.33138
2.2064
14.4293
32.1464
30.9893
31.1657
16.7331
2.24239
0.432944
0.601712
4.71744
15.604
9.60845
2.24255
1.51355
0.552036
0.589851
0.477669
0.526328
1013.36
3.59132
6.18707
11.0249
20.3123
20.9142
19.5385
11.9337
5.62097
4.7934
3.64308
0.400169
-0.0504922
1.05842
14.1076
15.7004
6.38816
1.35146
1.12175
0.574343
0.376723
0.375858
0.422174
1048.19
46.2687
36.0582
23.1111
8.4602
5.1966
2.06122
0.701841
-0.0838942
-1.44624
-1.24533
-0.654933
-0.642775
5.8511
17.2909
16.0161
2.15053
0.688309
0.7187
0.469836
0.251036
0.276605
0.351286
808.12
97.5355
19.7955
9.58564
5.3139
1.6911
-0.0694119
-0.872995
-1.57548
-1.6664
-1.19305
-1.03079
-0.436251
11.7317
17.4524
10.2075
-0.399857
0.210749
0.50331
0.215226
0.271497
0.227906
0.232738
176.2
40.0907
8.46363
6.9639
6.35468
0.526638
-0.046278
-0.410282
-0.998106
-1.07815
-0.481932
-0.251065
1.17797
9.35339
15.0347
3.31054
-0.0838975
0.135317
0.205925
0.0400881
-0.0793247
0.0439485
-0.111758
9.95065
5.11247
7.97854
7.53536
2.32875
0.0967901
0.78262
2.02588
1.80257
0.438819
-0.670884
-0.332584
0.866449
3.18394
4.9938
0.0740864
-0.446614
-0.178411
-0.215031
-0.159686
-0.109933
-0.0266147
0.0867023
0.567928
1.3275
6.95641
3.40196
0.277375
0.182722
1.82311
2.39139
1.88614
-0.382736
-0.96518
-1.11171
-0.523511
-0.415705
-0.448021
-0.564435
-0.529702
-0.316894
-0.384831
-0.327631
-0.304747
-0.129286
0.0700293
0.591076
0.710205
3.29773
0.79379
0.130977
-0.144627
0.278745
0.458098
-0.148462
-0.902397
-0.853733
-1.03171
-0.81897
-0.71286
-1.06432
-0.650597
0.308862
0.603431
0.00538264
-0.25062
-0.0908749
-0.145436
0.00675445
1.50939
2.74765
1.08518
0.225533
-0.045592
-0.0987877
0.153133
0.756817
0.0673932
-0.546893
-0.688705
-0.727329
-0.616018
-0.151993
0.166888
0.961905
1.2157
1.16946
0.34828
-0.127206
-0.133171
-0.100313
-0.0372032
17.0893
3.16703
0.105969
-0.054176
-0.140319
-0.134332
0.00578936
0.51378
0.677568
0.42996
-0.249825
-0.230301
-0.00659221
0.882476
1.832
1.84864
1.18395
0.317876
-0.380267
-0.266668
-0.0723014
-0.0240127
0.0410011
54.0055
1.78088
0.0745818
-0.0709126
-0.171822
-0.0959102
-0.153376
-0.0668076
0.350826
0.623528
0.177992
0.109119
0.554089
1.06271
1.96754
2.25041
1.59478
0.337244
-0.188181
-0.0866744
-0.0889201
-0.0909633
0.042611
57.3474
0.468608
0.0373523
-0.0834476
-0.113141
-0.0865426
-0.177017
-0.142807
-0.068738
0.0181507
0.0172329
0.0445667
0.262566
0.437695
0.809457
0.958279
0.477986
-0.109579
-0.0453957
-0.119867
-0.0278609
-0.0382755
-0.0116908
53.4611
-0.0367889
-0.0636913
-0.0590368
-0.0862513
-0.18321
-0.106737
-0.113974
-0.101188
-0.0908241
-0.0506196
0.00107657
0.0464312
0.0752319
0.259871
0.212796
-0.0653336
-0.0290438
-0.0121184
-0.025707
0.0258181
0.00969537
-0.0224636
24.3571
0.0998209
-0.146124
-0.146958
-0.11718
-0.11316
-0.130235
-0.0877845
-0.0758161
-0.0546372
-0.0263911
0.012317
0.0391536
0.0684406
0.0237883
0.0827154
0.0582425
-0.0320942
0.0721344
0.0259222
0.0144755
0.0476006
-0.0292857
3.43453
-0.130989
-0.127065
-0.0479716
-0.150057
-0.116718
-0.0954405
-0.0495488
-0.0545138
-0.0343597
-0.0203902
0.00768766
0.0333553
0.0412257
0.0362972
0.0655011
0.00638703
-0.0158133
0.0263923
-0.00452881
0.0158507
0.0221468
0.0348992
-0.245072
-0.279649
-0.0311387
0.510904
-0.0740784
-0.0815938
-0.0844614
-0.0566077
-0.0169121
-0.0203972
-0.00449137
0.00957164
0.0139739
0.0491606
0.0562774
0.0448876
0.10764
-0.00658369
0.00624911
-0.0202654
0.0583
0.077535
0.014589
-0.282274
-0.315141
-0.193922
0.581632
-0.138029
-0.0430604
-0.0594283
-0.0504024
-0.0556468
-0.011944
-0.0245515
0.00719665
-0.00305095
0.0190905
-0.00555984
0.0352315
0.0230803
0.0171957
-0.0173021
0.0104771
-0.0072888
0.0198776
-0.0366374
-0.283978
-0.137829
0.376116
0.0657797
-0.0954325
-0.108195
-0.0965812
-0.0383303
-0.0241087
-0.0271638
-0.00448849
-0.00686607
0.00406054
0.0106348
0.0177693
0.00791297
0.0110734
0.0234037
-0.0014551
-0.0116762
0.0108799
-0.00136795
0.0699707
816.256
821.807
792.059
766.57
836.687
813.181
799.165
763.826
908.883
853.161
711.047
401.917
878.84
517.404
197.028
124.481
888.32
321.82
64.2068
39.4159
861.521
153.5
20.7595
12.6977
794.831
93.9852
16.9387
12.8384
588.926
77.0977
20.6693
11.0634
126.684
30.549
14.4227
8.28619
4.30283
4.68386
4.99949
8.07678
4.94321
4.8818
4.77623
4.75729
21.4034
12.996
6.09018
4.4253
3.8462
4.70913
8.43145
9.49512
2.12013
3.4429
5.35631
6.50743
1.33686
1.32642
1.40739
1.62872
1.12281
1.09924
1.09851
1.0668
0.961556
0.98012
0.978366
0.957618
0.9252
0.945431
0.927042
0.936957
0.81733
0.86073
0.875476
0.855691
0.739991
0.776113
0.748127
0.763009
0.790935
0.744724
0.695667
0.733956
0.70235
0.718574
0.751427
0.705631
0.631918
0.625411
0.589605
0.594545
0.583369
0.558128
0.555169
0.498102
0.562525
0.522322
0.502778
0.509173
0.348183
0.402312
0.439131
0.450706
0.364338
0.381432
0.432084
0.4411
0.201388
0.205338
0.179899
0.188611
0.164322
0.0596104
0.238911
0.211261
0.145627
0.134143
0.140836
0.130195
0.0913994
0.111052
0.126446
0.153805
0.0136572
0.0790845
0.0949329
0.123383
-0.0143881
0.024453
0.0641912
0.0941816
0.056948
0.0337947
0.0506482
0.0525855
0.0275298
0.0142937
0.0147289
0.00673842
0.0405526
0.0355506
0.0520154
0.0556924
0.0227234
0.0549005
0.032096
0.0665651
-0.0229457
-0.0196806
-0.0140948
-0.0184286
0.0640493
0.0309358
0.0502644
0.0197262
0.0269044
0.0461336
0.0197686
0.0293522
0.052716
0.0185134
0.0321729
0.0101509
0.0220395
0.0155976
-0.0199265
-0.0516028
638.671
489.343
242.649
90.5054
47.0875
175.839
588.896
480.651
150.943
61.2726
55.4059
53.0381
73.3581
121.022
185.521
388.115
551.343
665.106
732.775
471.066
109.619
58.5315
42.5305
49.1101
73.9102
309.953
178.232
81.1019
53.9433
44.9209
44.6141
53.0314
72.3871
100.925
152.084
222.211
551.977
743.113
157.012
63.0196
38.0948
41.9579
48.5136
49.5451
55.0043
45.704
53.2152
52.9954
44.8382
43.1274
49.6164
71.7063
78.0229
61.1899
115.562
322.421
817.125
88.4156
58.9351
85.1686
116.297
101.693
47.2521
40.1596
42.5487
41.7962
55.7242
65.0332
53.6931
35.5885
26.0081
19.8147
34.6066
98.3301
209.424
489.538
22.1079
19.3271
114.883
266.683
273.449
270.697
138.089
121.763
51.8398
75.4502
68.6397
84.1294
43.3021
14.5206
12.779
30.9436
142.552
438.058
610.103
13.9769
9.88875
9.46472
10.4725
29.8394
44.247
89.3966
90.5545
45.9428
56.6411
49.6308
64.4088
42.5715
12.8684
10.4838
13.4531
68.9093
362.186
684.809
10.4637
10.2677
8.02587
6.96165
7.62984
12.7873
22.7466
36.9489
35.1477
16.9513
4.54191
11.4304
12.3264
7.43616
7.34476
5.21874
8.52012
54.5282
180.086
10.4193
16.4099
7.7622
3.72128
5.35577
13.5375
23.2665
19.8182
12.3364
1.64245
1.88514
5.65993
36.1886
9.79585
3.79641
2.67149
2.71095
2.57254
3.86131
14.453
16.7941
7.05244
3.54419
8.49829
12.7408
12.9973
9.05063
1.682
1.24206
1.35498
5.45177
39.8198
20.398
4.55395
2.21052
2.09084
2.09396
2.33123
14.1543
17.0447
5.06587
2.81694
2.45572
1.53455
1.71937
1.11651
1.06608
1.08987
1.23953
4.9133
27.7537
28.8494
6.61993
2.2298
2.11001
2.79166
2.54009
7.98403
9.86398
4.29141
1.71457
1.17862
1.00456
1.03495
1.10173
1.0045
1.03828
1.08659
2.48358
3.2964
13.6827
6.73715
1.82402
1.4944
3.52802
5.04407
3.60631
3.3932
2.58358
0.966379
0.870244
0.895577
0.938184
0.860815
0.959686
0.965781
1.21766
2.88714
2.68175
3.10357
4.95706
1.5942
1.10001
3.13682
8.90802
9.03596
1.64261
1.1166
0.834568
0.982868
0.89384
0.929458
0.869913
0.944032
1.00368
1.26547
3.37528
5.07463
1.38082
2.25767
1.64002
1.59005
2.80141
11.3437
5.53109
1.73953
0.963842
0.88468
0.904955
0.907638
0.908085
1.01303
0.944054
1.01725
1.17276
4.35269
8.79463
7.0505
1.94342
2.00098
1.85511
5.42784
12.6796
1.93529
1.89803
1.47505
1.0416
0.879521
0.893098
0.905856
0.949788
0.929342
0.978751
0.983532
1.42086
6.72721
12.6427
10.0327
10.4698
19.9286
21.1224
15.3788
1.09979
1.11129
1.05766
0.977075
0.899611
0.89314
0.909631
0.93032
0.924564
0.969036
0.979404
0.942731
1.01836
2.5681
6.7667
8.09378
6.0249
7.63198
8.84644
0.989318
0.942158
0.831752
0.912097
0.867197
0.878277
0.887246
0.90454
0.898158
0.932615
0.910475
0.903849
0.965712
0.956539
1.18218
1.23015
1.12917
1.91739
3.54708
0.920326
0.89193
0.843386
0.867254
0.858802
0.843807
0.860929
0.878884
0.902103
0.932844
0.927162
0.914344
0.922714
0.93596
1.00743
0.922263
0.841356
0.77815
0.947059
0.870288
0.842832
0.812173
0.836328
0.844967
0.837127
0.830499
0.849339
0.866878
0.873232
0.898066
0.90541
0.899209
1.1833
1.42251
1.32967
0.910637
0.867327
0.783921
0.851909
0.838614
0.730659
0.784283
0.784204
0.803753
0.826933
0.847759
0.851329
0.850069
0.883568
0.874183
0.868276
1.29955
1.39273
1.49261
1.20465
1.06055
1.0778
0.639657
0.658477
0.76747
0.732378
0.744648
0.788125
0.771812
0.675398
0.812503
0.800175
0.8025
0.822521
0.783962
1.06054
1.17082
1.33899
1.48053
1.3167
1.19594
0.635927
0.651693
0.678425
0.674925
0.686406
0.640022
0.765118
0.706218
0.748062
0.747867
0.796427
0.775475
0.778257
0.727385
0.746446
1.04517
2.90855
2.64463
0.795289
0.726364
0.546444
0.587099
0.61181
0.613682
0.591712
0.52256
0.717736
0.65324
0.714244
0.695153
0.72845
0.719027
0.599356
0.508988
1.13788
3.09544
3.17742
0.891377
0.484771
0.645828
0.541382
0.554089
0.497871
0.465873
0.498517
0.474225
0.600739
0.632549
0.621461
0.700525
0.656267
0.493488
0.534875
0.71842
3.1612
3.08496
0.926255
0.398714
0.475892
0.491867
0.516516
0.533791
0.583992
0.492425
0.43048
0.507421
0.472027
0.420635
0.599902
0.534907
0.414791
0.492198
1.85642
3.2017
1.27916
1.53231
0.501046
0.478153
0.455387
0.471605
0.426829
0.454319
0.425439
0.300167
0.400865
0.328268
0.268085
0.437132
0.351162
0.343705
0.465006
1.74306
1.31688
0.675052
1.13699
0.419029
0.433115
0.444081
0.528955
0.537953
0.50881
0.538268
0.252019
0.279458
0.360437
0.166139
0.31897
0.376799
0.362742
0.346327
0.839133
0.576448
0.649028
0.756178
0.266333
0.321336
0.375872
0.209995
0.212212
0.264712
0.348475
0.297603
0.0548524
0.207481
0.190915
0.199806
0.2944
0.281073
0.247435
0.527327
0.510659
0.704906
0.595256
0.178387
0.14256
0.0699494
0.108898
0.0441789
0.10862
0.2392
0.171656
0.0836332
0.0253897
0.000565973
0.0397449
0.224365
0.298971
0.269406
0.427668
0.491569
1.05076
0.520049
0.152243
0.172846
0.160001
0.147323
0.231088
0.220344
0.109088
0.0862891
-0.113533
-0.00366218
0.0474742
0.0339858
0.139246
0.146725
0.333209
0.360193
0.534031
1.02849
0.520156
0.16436
0.095856
0.0632429
0.00291308
0.0734644
-0.00994372
-0.326032
-0.098211
-0.168981
-0.0234965
0.31807
0.381443
0.127334
0.233961
0.328327
0.410134
0.499826
1.05363
0.562053
0.184026
0.151013
0.130374
0.21785
0.124708
0.0171984
-0.226957
-0.138081
-0.120159
-0.0935912
0.357054
0.439052
0.416257
0.266258
0.355274
0.223543
0.341257
0.642312
0.517546
0.133046
0.131659
0.297374
0.162967
0.133494
0.0337252
0.0864719
-0.201485
-0.0878568
0.122352
0.307679
0.377737
0.295927
0.229574
0.180408
0.289657
0.525449
0.913807
0.633627
0.0196974
0.0660829
-0.0213961
0.127853
0.0889387
0.097543
0.0972994
-0.068059
0.0240727
0.19791
0.358001
0.213507
0.276204
0.342748
1.44962
1.91176
2.19681
2.07556
0.777675
0.00608882
0.0496128
0.00155087
0.0554021
0.0955706
0.158739
-0.0654859
-0.00151889
0.0762519
0.195279
0.0300434
0.0709389
0.160087
1.17236
4.01707
3.94933
2.30216
1.47036
0.528332
0.0640317
0.0615522
0.167049
0.0559835
0.118211
-0.149532
-0.0552624
-0.076213
-0.0536073
0.150312
-0.0196938
0.00532213
0.655582
2.49066
2.24282
0.593563
0.768299
0.294807
0.203839
0.0850141
0.0788946
0.0994812
0.0902334
0.0390852
0.0149833
0.0986876
0.0762092
0.0676327
-0.0410314
0.0526966
0.14308
1.25102
2.51582
0.617564
0.0691346
0.0741039
0.0958043
0.106325
-0.0548793
0.0477896
0.102512
0.151924
0.0934804
0.158539
0.095871
0.113163
0.13507
0.0585918
0.051714
0.435196
1.79052
2.56937
0.975371
0.0836256
0.0237709
0.0588259
0.139572
0.0292882
0.013671
0.118615
-0.0265074
0.0793289
0.0896997
0.0688345
0.111759
0.0131072
0.105936
0.0421742
0.316958
1.25332
2.42305
1.47485
0.187711
0.0442633
0.016879
0.00593342
0.0479524
-0.00198125
-0.0474688
0.00317325
0.0242575
-0.0223807
0.0929702
0.0208605
0.132359
0.0666332
0.0784182
0.0845851
0.280241
0.235789
0.69522
1.11139
0.0909168
0.036529
0.000586832
0.0376176
0.0147555
-0.0405179
-0.0554104
0.0168675
-0.00499118
-0.00748245
0.0207966
0.0485849
0.0501361
0.0499007
0.0194651
0.0355834
-0.0299785
-0.00433806
0.93157
0.128033
0.0424265
0.0688766
-0.0301466
-0.0766413
-0.0408378
-0.024842
-0.085481
-0.0290764
-0.000389412
0.00955208
0.0198666
0.00921416
0.0198023
0.00127079
-0.00591024
-0.00759853
-0.0129943
0.326754
0.0279437
0.015964
0.0192504
)
;

boundaryField
{
    leftWall
    {
        type            zeroGradient;
    }
    rightWall
    {
        type            zeroGradient;
    }
    lowerWall
    {
        type            zeroGradient;
    }
    atmosphere
    {
        type            totalPressure;
        rho             rho;
        psi             none;
        gamma           1;
        p0              uniform 0;
        value           nonuniform List<scalar> 
46
(
0
0
0
0
-0.0668254
-0.0583003
-0.0409952
-0.0343632
-0.0230568
-0.0106289
-0.00572902
-0.000800945
-0.00121093
-0.000285373
-0.00758599
-0.0040546
-0.00455631
0
-0.00948026
-0.0102923
-0.0011122
0
-0.00218859
-0.00913866
-0.020266
-0.0331362
-0.048064
-0.0404954
-0.0716894
-0.084681
-0.084119
-0.0786039
-0.0648358
-0.043151
-0.0253107
-0.00939512
-0.00280932
-0.000468509
-0.00248733
-1.76814e-05
-0.0124867
-0.00873371
0
0
0
0
)
;
    }
    defaultFaces
    {
        type            empty;
    }
}


// ************************************************************************* //
