/*--------------------------------*- C++ -*----------------------------------*\
| =========                 |                                                 |
| \\      /  F ield         | foam-extend: Open Source CFD                    |
|  \\    /   O peration     | Version:     4.1                                |
|   \\  /    A nd           | Web:         http://www.foam-extend.org         |
|    \\/     M anipulation  |                                                 |
\*---------------------------------------------------------------------------*/
FoamFile
{
    version     2.0;
    format      ascii;
    class       volVectorField;
    location    "0.95";
    object      U_0;
}
// * * * * * * * * * * * * * * * * * * * * * * * * * * * * * * * * * * * * * //

dimensions      [0 1 -1 0 0 0 0];

internalField   nonuniform List<vector> 
2268
(
(-0.00428424 0.00997197 0)
(-0.0352042 0.00864307 0)
(-0.0310996 0.00605629 0)
(-0.058982 -0.0153189 0)
(-0.077754 0.00645782 0)
(-0.138522 0.00370129 0)
(-0.161568 -0.00353996 0)
(-0.1608 -0.0134053 0)
(-0.135685 -0.0225184 0)
(-0.0525854 -0.00305409 0)
(-0.0271533 0.00140981 0)
(0.00235611 -0.0206814 0)
(0.0713343 -0.000540722 0)
(0.087039 -0.0195748 0)
(0.101813 -0.00251464 0)
(0.125913 -0.0147002 0)
(0.126588 0.00843974 0)
(0.0919695 0.00350061 0)
(0.0617714 0.00127984 0)
(0.0473037 -0.00560454 0)
(0.0166968 -0.00210413 0)
(0.00932677 -0.00279385 0)
(0.0217067 0.00496534 0)
(0.00551028 0.00885943 0)
(-0.0197665 0.00440497 0)
(-0.0204658 0.00382683 0)
(-0.0679524 0.00663721 0)
(-0.0756757 0.0112498 0)
(-0.130271 0.038934 0)
(-0.153144 0.0124366 0)
(-0.148032 0.00195027 0)
(-0.102515 -0.0148183 0)
(-0.0656625 -0.000822907 0)
(-0.0455417 -0.0340982 0)
(-0.0048898 -0.030273 0)
(0.0465179 -0.0355105 0)
(0.0515651 -0.0159465 0)
(0.0745196 -0.012588 0)
(0.119575 -0.000489285 0)
(0.100097 0.0125039 0)
(0.0557908 0.0225966 0)
(0.0415632 0.0223999 0)
(0.0353445 0.0255955 0)
(0.0125324 0.021278 0)
(0.00709096 -0.00198925 0)
(0.0172857 0.0103863 0)
(0.00227003 0.0163104 0)
(-0.0330764 0.0113772 0)
(-0.0391526 0.0180794 0)
(-0.0851254 -0.00235306 0)
(-0.0921701 0.0201308 0)
(-0.145731 -0.000707731 0)
(-0.170177 -0.00509239 0)
(-0.166848 -0.0352363 0)
(-0.137919 0.012156 0)
(-0.132007 -0.0550894 0)
(-0.0804739 -0.0416956 0)
(-0.0350126 -0.0396784 0)
(0.015956 -0.0309734 0)
(0.0355696 -0.0200927 0)
(0.0621001 -0.0247061 0)
(0.100187 0.0270794 0)
(0.0586964 -0.00147021 0)
(0.0248354 0.0220552 0)
(0.0161014 0.0130571 0)
(0.0131231 0.0356199 0)
(-0.00732719 0.018867 0)
(-0.00600873 -0.00876573 0)
(0.0179599 0.0118445 0)
(-0.00990472 0.0238266 0)
(-0.025047 0.0247458 0)
(-0.051045 0.0251644 0)
(-0.0786225 0.0365058 0)
(-0.0813431 0.0347564 0)
(-0.148321 0.0158141 0)
(-0.174073 0.0144825 0)
(-0.159899 0.0139711 0)
(-0.179887 0.0288461 0)
(-0.172165 -0.053346 0)
(-0.116361 -0.0471116 0)
(-0.0890393 -0.0852275 0)
(-0.0153393 -0.144775 0)
(0.031053 -0.116689 0)
(0.0770843 -0.0422772 0)
(0.0956415 0.0312745 0)
(0.045446 0.0177314 0)
(-0.0282601 0.0376666 0)
(-0.0363914 0.032701 0)
(-0.0157804 0.00668513 0)
(-0.0288491 0.0306852 0)
(-0.0038024 -0.0117928 0)
(0.0245835 0.0163568 0)
(-0.0115652 0.0329581 0)
(-0.0272163 0.0285697 0)
(-0.0284852 0.016378 0)
(-0.0733978 0.0394628 0)
(-0.0942231 0.0379711 0)
(-0.18576 0.0384112 0)
(-0.208971 0.0157268 0)
(-0.19688 0.0367371 0)
(-0.221546 -0.0472714 0)
(-0.182562 -0.00463169 0)
(-0.142619 -0.0563654 0)
(-0.138142 -0.0892191 0)
(-0.0507353 -0.131168 0)
(0.0458507 -0.105504 0)
(0.0899053 -0.0481379 0)
(0.104497 0.0708397 0)
(0.0494451 0.0631672 0)
(-0.0471864 0.0529573 0)
(-0.0906779 0.0283444 0)
(-0.0491285 0.0385255 0)
(-0.0637467 0.0688723 0)
(-0.0372331 -0.0394317 0)
(0.0305177 0.0236307 0)
(-0.0146833 0.0417598 0)
(-0.0390397 0.0354867 0)
(-0.0545168 0.0449834 0)
(-0.0816825 0.0371368 0)
(-0.108371 0.016427 0)
(-0.180634 0.0793341 0)
(-0.201242 0.0173613 0)
(-0.214946 0.0733662 0)
(-0.233918 0.0234994 0)
(-0.205912 0.00531303 0)
(-0.192643 -0.0660984 0)
(-0.159472 -0.127688 0)
(-0.0745492 -0.106303 0)
(0.00160872 -0.074162 0)
(0.033696 -0.064832 0)
(0.114672 0.0564625 0)
(0.0171108 0.0934159 0)
(-0.100334 0.0963983 0)
(-0.125894 0.0485237 0)
(-0.0992619 0.0198628 0)
(-0.109743 0.0206156 0)
(-0.0564623 -0.0557431 0)
(0.0475261 0.0152993 0)
(-0.0153874 0.0477554 0)
(-0.0267019 0.056994 0)
(-0.048313 0.0342835 0)
(-0.0945552 0.0569535 0)
(-0.0919728 0.0260318 0)
(-0.197892 0.0797173 0)
(-0.238849 0.0278032 0)
(-0.230479 0.0534041 0)
(-0.251635 0.0498227 0)
(-0.222769 -0.0233193 0)
(-0.265287 -0.0784477 0)
(-0.277958 -0.145731 0)
(-0.163272 -0.189489 0)
(-0.0804714 -0.268213 0)
(-0.0449451 -0.0986131 0)
(0.0450025 0.0658755 0)
(-0.00812786 0.160319 0)
(-0.131518 0.118786 0)
(-0.168987 0.0226021 0)
(-0.144274 0.00417516 0)
(-0.129394 -0.0260445 0)
(-0.0411965 -0.0812762 0)
(0.0565472 0.0211553 0)
(-0.00625431 0.060412 0)
(-0.0348054 0.0517014 0)
(-0.0690519 0.0530402 0)
(-0.126489 0.0569401 0)
(-0.161567 0.0259957 0)
(-0.231599 0.044403 0)
(-0.241315 0.10641 0)
(-0.240792 0.0983748 0)
(-0.279899 0.122016 0)
(-0.2905 0.0103024 0)
(-0.355571 -0.0433076 0)
(-0.38121 -0.186027 0)
(-0.359852 -0.241647 0)
(-0.210872 -0.267112 0)
(-0.0857792 -0.108234 0)
(-0.170989 0.0200039 0)
(-0.0525111 0.195625 0)
(-0.153494 0.154095 0)
(-0.195663 0.0445444 0)
(-0.148231 -0.0029298 0)
(-0.14251 -0.0346145 0)
(-0.0708291 -0.151941 0)
(0.0892781 0.0719244 0)
(-0.251181 0.099033 0)
(-0.375185 0.0154064 0)
(-0.409088 -0.0159254 0)
(-0.251035 -0.048161 0)
(-0.203908 0.0049793 0)
(-0.273809 0.0026334 0)
(-0.396037 -0.0102844 0)
(-0.435732 -0.0473511 0)
(-0.426881 -0.0916962 0)
(-0.264298 -0.175279 0)
(-0.0287952 -0.145157 0)
(0.0959484 -0.0335289 0)
(0.0510388 0.0679281 0)
(-0.0413839 -0.0233929 0)
(-0.0196269 -0.060652 0)
(0.0365769 0.0211494 0)
(0.013337 -0.0118558 0)
(0.0181972 0.00837689 0)
(-0.0192328 0.00607277 0)
(-0.221293 0.153481 0)
(-0.268815 0.0562267 0)
(-0.272925 -0.0883544 0)
(0.0173311 -0.12249 0)
(0.137953 0.0110655 0)
(0.0386611 0.17034 0)
(-0.205722 0.151567 0)
(-0.342613 0.0607351 0)
(-0.326849 -0.052052 0)
(-0.24422 -0.150893 0)
(0.00308549 -0.138922 0)
(0.233816 0.0095227 0)
(0.268481 -0.012516 0)
(0.175429 0.0581916 0)
(0.137435 0.0390697 0)
(0.222143 -0.0566954 0)
(0.180073 0.0409344 0)
(0.0509454 0.00282676 0)
(-0.0545312 -0.00512081 0)
(-0.158728 0.265411 0)
(-0.0955667 0.059904 0)
(0.0631258 -0.0529115 0)
(0.227274 -0.164392 0)
(0.176798 -0.0155343 0)
(0.19369 0.172162 0)
(-0.0350574 0.158028 0)
(-0.223325 0.112452 0)
(-0.222603 -0.0560051 0)
(-0.23416 -0.160623 0)
(0.00645444 -0.264126 0)
(0.257607 -0.0962777 0)
(0.25122 0.0115527 0)
(0.241687 0.00489683 0)
(0.201779 0.020386 0)
(0.270504 -0.0475943 0)
(0.251771 0.0768995 0)
(0.0477423 0.0565696 0)
(-0.0067543 0.00378257 0)
(-0.0825167 0.244542 0)
(0.269205 0.0248057 0)
(0.313064 -0.187009 0)
(0.376404 -0.190116 0)
(0.297728 0.0112417 0)
(0.18784 0.156379 0)
(0.0874205 0.1409 0)
(0.0233804 0.191506 0)
(-0.172144 -0.0285004 0)
(-0.0508353 -0.238276 0)
(0.00918454 -0.376997 0)
(0.298695 -0.168692 0)
(0.329073 0.0671005 0)
(0.257002 -0.00779858 0)
(0.176063 0.0112392 0)
(0.224971 0.0062881 0)
(0.256541 0.0775343 0)
(0.104019 0.102643 0)
(0.0999231 0.0395261 0)
(0.028902 0.149331 0)
(0.417814 -0.0711241 0)
(0.422579 -0.364979 0)
(0.442127 -0.235329 0)
(0.303249 0.0809328 0)
(0.139082 0.21939 0)
(0.0463103 0.229105 0)
(0.0257791 0.207395 0)
(-0.188072 0.00715529 0)
(0.101815 -0.242865 0)
(0.0161044 -0.396495 0)
(0.132613 -0.175785 0)
(0.345507 -0.0539717 0)
(0.339058 0.0661683 0)
(0.236815 0.0522158 0)
(0.252791 0.023196 0)
(0.267795 0.079684 0)
(0.0833477 0.119621 0)
(0.0817959 0.0681899 0)
(0.0646756 0.0529891 0)
(0.373063 -0.00604308 0)
(0.48605 -0.334607 0)
(0.495872 -0.199784 0)
(0.346928 0.143782 0)
(0.146877 0.246177 0)
(0.0700122 0.482168 0)
(-0.0304404 0.244192 0)
(-0.16292 -0.0559278 0)
(0.181337 -0.305887 0)
(0.0373071 -0.385519 0)
(0.0845923 -0.133297 0)
(0.201174 -0.126475 0)
(0.297859 0.0848085 0)
(0.291463 0.10695 0)
(0.248758 0.104666 0)
(0.252996 0.0650553 0)
(0.147044 0.119226 0)
(0.109104 0.107016 0)
(0.131821 -0.0500939 0)
(0.384612 -0.10925 0)
(0.490552 -0.302191 0)
(0.481621 -0.221611 0)
(0.206982 0.252396 0)
(0.175626 0.357597 0)
(0.114129 0.426057 0)
(-0.0832123 0.250218 0)
(-0.112798 -0.0191292 0)
(0.303283 -0.310161 0)
(0.12346 -0.589149 0)
(0.00407896 -0.318211 0)
(0.167531 -0.185919 0)
(0.329437 -0.0538959 0)
(0.399364 0.0262381 0)
(0.31675 0.120026 0)
(0.244873 0.0772497 0)
(0.181379 0.15159 0)
(0.150073 0.166405 0)
(0.214609 -0.177358 0)
(0.422538 -0.231907 0)
(0.511144 -0.363382 0)
(0.439622 -0.273565 0)
(0.14585 0.743146 0)
(0.0205769 0.57637 0)
(0.0694457 0.306696 0)
(-0.170349 0.284321 0)
(0.114604 -0.189534 0)
(0.338189 -0.307009 0)
(0.194419 -0.668044 0)
(0.142804 -0.451013 0)
(0.238653 -0.160956 0)
(0.338787 -0.0234411 0)
(0.351275 0.119233 0)
(0.242843 0.191285 0)
(0.216125 0.152149 0)
(0.17957 0.164622 0)
(0.190326 0.19216 0)
(-0.0209616 0.0631463 0)
(0.00599779 0.126118 0)
(-0.0286153 0.0738704 0)
(-0.177381 0.115998 0)
(-0.181324 0.105482 0)
(-0.186116 0.0988552 0)
(-0.242405 0.138609 0)
(-0.257114 0.0976487 0)
(-0.329786 0.100151 0)
(-0.401923 -0.00898834 0)
(-0.482077 -0.0314903 0)
(-0.543751 -0.114143 0)
(-0.546374 -0.155674 0)
(-0.527884 -0.13485 0)
(-0.506247 -0.125611 0)
(-0.473374 -0.0942158 0)
(-0.25415 0.160692 0)
(-0.179255 0.138825 0)
(-0.190889 0.0775155 0)
(-0.204995 -0.0170724 0)
(-0.136718 -0.0696409 0)
(-0.107457 -0.195519 0)
(0.058584 -0.0677943 0)
(0.0267422 0.0702118 0)
(-0.0777602 0.144627 0)
(-0.0750764 0.150165 0)
(-0.13222 0.128608 0)
(-0.224423 0.169369 0)
(-0.227017 0.119694 0)
(-0.225398 0.0914696 0)
(-0.262182 0.160176 0)
(-0.33939 0.190848 0)
(-0.380566 0.194076 0)
(-0.50099 0.0951258 0)
(-0.700015 -0.221209 0)
(-0.788799 -0.374488 0)
(-0.85116 -0.413072 0)
(-0.878459 -0.39952 0)
(-0.682706 -0.104412 0)
(-0.37786 0.05178 0)
(-0.348791 0.193737 0)
(-0.189367 0.114849 0)
(-0.145302 -0.0976383 0)
(-0.0581705 -0.245229 0)
(-0.139569 -0.271163 0)
(-0.180621 -0.233217 0)
(-0.0283476 0.102841 0)
(0.00599731 0.138688 0)
(-0.081718 0.174621 0)
(-0.155042 0.178386 0)
(-0.188341 0.172826 0)
(-0.289989 0.176841 0)
(-0.256235 0.19283 0)
(-0.209187 0.211223 0)
(-0.316574 0.252332 0)
(-0.361519 0.32329 0)
(-0.458218 0.268121 0)
(-0.897077 0.0646454 0)
(-0.900806 -0.376832 0)
(-0.902902 -0.510165 0)
(-0.835555 -0.475868 0)
(-0.70143 -0.243294 0)
(-0.459288 -0.270336 0)
(-0.36094 -0.152975 0)
(-0.282935 -0.162054 0)
(-0.251367 -0.152441 0)
(-0.145451 -0.301064 0)
(-0.12107 -0.28038 0)
(-0.229536 -0.261743 0)
(-0.025168 0.0789476 0)
(-0.0868138 0.156092 0)
(-0.0112659 0.22404 0)
(-0.0985043 0.221703 0)
(-0.146092 0.343951 0)
(-0.17744 0.197772 0)
(-0.235391 0.229907 0)
(-0.279582 0.212186 0)
(-0.256732 0.263265 0)
(-0.294592 0.462326 0)
(-0.367385 0.584012 0)
(-0.689405 0.404562 0)
(-0.636442 -0.0993868 0)
(-0.795774 -0.456745 0)
(-0.95346 -0.556995 0)
(-0.841616 -0.324729 0)
(-0.45069 -0.233825 0)
(-0.295889 -0.220696 0)
(-0.257915 -0.212899 0)
(-0.209827 -0.160459 0)
(-0.180354 -0.146986 0)
(-0.207299 -0.128675 0)
(-0.307117 -0.112227 0)
(-0.0273794 0.169418 0)
(-0.00545873 0.166695 0)
(0.0282928 0.403156 0)
(0.0178054 0.326974 0)
(-0.180599 0.369063 0)
(-0.246465 0.188606 0)
(-0.233752 0.162359 0)
(-0.242072 0.219335 0)
(-0.208846 0.288698 0)
(-0.145778 0.432169 0)
(-0.0878575 0.726108 0)
(-0.288751 0.97073 0)
(-0.2858 -0.0548679 0)
(-0.63353 -0.44805 0)
(-0.971817 -0.862706 0)
(-0.933297 -0.448842 0)
(-0.892415 -0.189805 0)
(-0.606351 -0.183132 0)
(-0.427251 -0.262143 0)
(-0.377191 -0.226329 0)
(-0.247417 -0.113912 0)
(-0.198919 -0.163967 0)
(-0.215137 -0.084179 0)
(0.189269 0.128869 0)
(0.140601 0.370868 0)
(-0.0839656 0.322589 0)
(-0.0560061 0.353199 0)
(-0.232438 0.379806 0)
(-0.259899 0.245324 0)
(-0.267576 0.189758 0)
(-0.25697 0.187699 0)
(-0.0974244 0.186325 0)
(0.0369454 0.315321 0)
(-0.154953 0.745374 0)
(-0.378934 0.874798 0)
(-0.521215 0.0378251 0)
(-0.577804 -0.290961 0)
(-0.94809 -0.419258 0)
(-1.0288 -0.337303 0)
(-0.900014 -0.645551 0)
(-0.641939 -0.653596 0)
(-0.0881043 -0.407476 0)
(0.0298478 -0.221557 0)
(-0.303711 -0.317969 0)
(-0.236495 -0.346525 0)
(-0.178228 -0.0961109 0)
(0.0109842 -0.245077 0)
(0.370324 0.299147 0)
(-0.24533 0.53104 0)
(-0.304423 0.475292 0)
(-0.40641 0.488202 0)
(-0.389709 0.236019 0)
(-0.30497 0.149218 0)
(-0.165561 0.0379433 0)
(0.0821203 -0.0215532 0)
(-0.239778 0.498661 0)
(-0.443654 0.914819 0)
(-0.583299 0.851632 0)
(-0.334627 0.191183 0)
(-0.578114 -0.124778 0)
(-0.717255 -0.355545 0)
(-0.711727 -0.573316 0)
(-0.566839 -0.815636 0)
(-0.420381 -0.869139 0)
(-0.158904 -0.806469 0)
(0.193999 -0.217279 0)
(0.222386 -0.143584 0)
(-0.169424 -0.401055 0)
(-0.176067 -0.108761 0)
(-0.181379 -0.325717 0)
(0.172549 0.705677 0)
(-0.772302 0.830804 0)
(-0.562284 0.581206 0)
(-0.524151 0.476575 0)
(-0.456484 0.171913 0)
(-0.236391 0.078101 0)
(-0.254261 -0.212663 0)
(-0.378452 0.371713 0)
(-0.847715 0.926703 0)
(-0.840868 1.06506 0)
(-0.666948 0.579608 0)
(-0.573966 0.229941 0)
(-0.676832 0.0645171 0)
(-0.808545 -0.223921 0)
(-0.679065 -0.561497 0)
(-0.53175 -0.868895 0)
(-0.4475 -0.990334 0)
(-0.370881 -0.965364 0)
(-0.347611 -0.451069 0)
(0.16757 0.234249 0)
(-0.203812 0.0427571 0)
(-0.219993 0.0254985 0)
(-0.269581 -0.287118 0)
(-0.13452 1.22343 0)
(-0.619202 1.17106 0)
(-0.53977 0.672526 0)
(-0.538063 0.414473 0)
(-0.412312 -0.054156 0)
(-0.354875 -0.200731 0)
(-0.788482 0.105275 0)
(-1.10084 0.708377 0)
(-1.20644 0.82551 0)
(-1.02403 0.867847 0)
(-0.842362 0.57961 0)
(-0.826921 0.385062 0)
(-0.859992 0.0566356 0)
(-0.838313 -0.151191 0)
(-0.815572 -0.633128 0)
(-0.743098 -0.971739 0)
(-0.560544 -0.982821 0)
(-0.57884 -0.905181 0)
(-0.702473 -0.535119 0)
(-0.465484 -0.311734 0)
(-0.35289 -0.0645416 0)
(-0.40486 0.0263053 0)
(-0.286409 -0.173401 0)
(-0.0392655 1.62273 0)
(-0.409105 1.47821 0)
(-0.386038 0.681385 0)
(-0.377077 0.340654 0)
(-0.336545 0.0327626 0)
(-0.775352 0.323208 0)
(-1.06798 0.537819 0)
(-1.25617 0.88347 0)
(-1.27474 0.97583 0)
(-0.993938 1.00017 0)
(-0.896697 0.937861 0)
(-1.03015 0.398153 0)
(-0.928838 0.0931115 0)
(-1.10852 -0.41794 0)
(-1.06874 -0.860346 0)
(-0.841864 -1.23354 0)
(-0.614721 -1.29097 0)
(-0.841633 -0.984061 0)
(-0.825544 -0.482282 0)
(-0.704858 -0.189665 0)
(-0.634151 -0.177656 0)
(-0.650612 -0.203478 0)
(-0.269095 -0.133192 0)
(0.323137 1.59328 0)
(-0.291798 1.45009 0)
(-0.505745 0.649778 0)
(-0.365758 0.40123 0)
(-0.526139 0.328236 0)
(-0.769141 0.542397 0)
(-0.801803 0.699611 0)
(-1.0781 1.05008 0)
(-1.0591 1.2607 0)
(-0.951266 1.22711 0)
(-1.06062 0.720947 0)
(-1.23749 0.208674 0)
(-1.02037 -0.0906761 0)
(-1.24029 -0.561973 0)
(-1.17618 -0.834427 0)
(-0.960838 -1.22229 0)
(-0.960713 -1.41817 0)
(-1.1187 -1.16076 0)
(-0.78491 -0.423894 0)
(-0.698057 -0.191042 0)
(-0.592069 -0.259117 0)
(-0.607995 -0.322733 0)
(-0.233656 -0.200613 0)
(0.246947 1.55043 0)
(-0.163553 1.37945 0)
(-0.38416 0.687332 0)
(-0.346018 0.457261 0)
(-0.289931 0.44864 0)
(-0.539192 0.650337 0)
(-0.710716 0.948445 0)
(-0.901966 1.03242 0)
(-1.00066 1.15911 0)
(-1.2102 0.99988 0)
(-1.46074 0.708459 0)
(-1.41959 0.385036 0)
(-1.01258 -0.0927945 0)
(-0.837634 -0.755932 0)
(-0.687627 -0.87218 0)
(-0.781864 -1.08667 0)
(-0.825988 -1.39827 0)
(-1.04861 -1.42737 0)
(-0.803499 -0.908178 0)
(-0.633965 -0.533545 0)
(-0.626885 -0.382357 0)
(-0.621495 -0.0905086 0)
(-0.258957 -0.225384 0)
(0.108288 1.66915 0)
(-0.169313 1.51028 0)
(-0.21803 0.791145 0)
(-0.204437 0.546222 0)
(-0.341399 0.521581 0)
(-0.615988 0.877149 0)
(-0.704356 1.0343 0)
(-0.801892 0.997834 0)
(-0.856913 0.910241 0)
(-0.923307 0.689359 0)
(-0.972755 0.33348 0)
(-0.793539 0.055645 0)
(-0.569571 -0.30578 0)
(-0.479604 -0.664861 0)
(-0.255546 -0.856976 0)
(-0.0520658 -1.0302 0)
(0.0901138 -1.1059 0)
(-0.270778 -0.974447 0)
(-0.564419 -0.99165 0)
(-0.177348 -0.505047 0)
(-0.17369 -0.522014 0)
(-0.319786 -0.430209 0)
(-0.256424 -0.0890774 0)
(0.00296577 1.51618 0)
(-0.183578 1.59723 0)
(-0.122436 0.836821 0)
(-0.253283 0.625622 0)
(-0.20156 0.560371 0)
(-0.374689 1.03324 0)
(-0.53631 1.201 0)
(-0.685727 1.08422 0)
(-0.688027 0.922593 0)
(-0.603839 0.865087 0)
(-0.900376 0.420055 0)
(-0.624951 -0.320231 0)
(-0.385634 -0.748735 0)
(-0.227583 -0.878138 0)
(0.0194511 -0.986718 0)
(0.181716 -1.27975 0)
(0.505369 -1.10251 0)
(0.465477 -0.790973 0)
(0.180878 -0.676618 0)
(0.105136 -0.428227 0)
(-0.0632214 -0.462612 0)
(-0.278736 -0.376105 0)
(-0.214631 0.0280467 0)
(-0.0697796 1.33511 0)
(-0.162116 1.60911 0)
(0.0235676 1.22017 0)
(-0.0278014 0.752321 0)
(-0.109175 0.840871 0)
(-0.295198 1.23182 0)
(-0.505127 1.36072 0)
(-0.622748 1.23984 0)
(-0.358796 1.09019 0)
(-0.483912 0.799275 0)
(-1.02679 0.389725 0)
(-0.901143 -0.240845 0)
(-0.362805 -0.868578 0)
(-0.234068 -1.09265 0)
(0.139842 -1.49265 0)
(0.219991 -1.50238 0)
(0.574845 -1.16665 0)
(0.628994 -0.725869 0)
(0.362904 -0.545033 0)
(0.0968537 -0.266476 0)
(-0.050978 -0.153146 0)
(-0.104089 -0.391543 0)
(-0.144646 0.137301 0)
(-0.0313463 1.21645 0)
(0.0187978 1.62186 0)
(0.0958929 1.44596 0)
(-0.0697073 0.78863 0)
(-0.10987 0.955323 0)
(-0.0710365 1.27507 0)
(-0.280033 1.4702 0)
(-0.384735 1.447 0)
(-0.252382 1.65863 0)
(-0.203124 0.826117 0)
(-0.433613 0.19713 0)
(-0.234554 -0.0268391 0)
(0.0271321 -0.84388 0)
(-0.0784633 -1.1526 0)
(0.173415 -1.57246 0)
(0.228821 -1.55601 0)
(0.572761 -1.17855 0)
(0.603631 -0.716185 0)
(0.364201 -0.557724 0)
(0.0478263 -0.236746 0)
(0.113136 0.0118027 0)
(-0.116698 -0.175772 0)
(-0.0972506 0.238559 0)
(-0.0713944 1.10347 0)
(0.107295 1.43402 0)
(0.116062 1.19027 0)
(-0.00896385 0.779403 0)
(-0.0674254 1.07409 0)
(-0.0299332 1.24456 0)
(-0.034344 1.32591 0)
(-0.0381617 1.3745 0)
(0.286469 1.76818 0)
(0.0521909 1.36307 0)
(0.209418 0.592554 0)
(0.135177 -0.489914 0)
(0.510744 -1.12949 0)
(0.320973 -1.21428 0)
(0.267214 -1.50392 0)
(-0.015625 -1.50264 0)
(0.00855797 -1.33707 0)
(0.158492 -0.976718 0)
(0.125312 -0.464938 0)
(-0.0444948 -0.0242959 0)
(-0.236228 0.0930011 0)
(-0.11782 -0.0566243 0)
(-0.0583202 0.3306 0)
(-0.0921998 1.01395 0)
(0.101134 1.36896 0)
(-0.0488974 1.12407 0)
(0.00313266 0.916478 0)
(0.199107 1.15713 0)
(0.00805891 1.25004 0)
(0.199509 1.50276 0)
(0.528181 1.71232 0)
(0.879521 1.62823 0)
(0.734189 1.32348 0)
(0.548943 0.599577 0)
(0.642663 -0.283229 0)
(0.928877 -0.982926 0)
(0.720057 -1.08571 0)
(0.264061 -1.24685 0)
(-0.2569 -1.17708 0)
(-0.494376 -1.25788 0)
(-0.732956 -0.802434 0)
(-0.737318 -0.000176682 0)
(-0.868143 0.205002 0)
(-0.402041 0.0226029 0)
(-0.152425 -0.0146933 0)
(0.0550309 0.392276 0)
(-0.0457519 0.928099 0)
(0.145844 1.34098 0)
(0.0292406 1.13635 0)
(0.0481782 1.20461 0)
(0.132575 1.22544 0)
(0.0950391 1.23626 0)
(0.461739 1.60123 0)
(0.678518 1.5859 0)
(0.881778 1.31319 0)
(0.746177 0.982709 0)
(0.973494 0.416913 0)
(0.886833 -0.347421 0)
(1.23758 -1.00298 0)
(1.06786 -1.0914 0)
(0.240439 -1.12532 0)
(-0.287313 -1.04081 0)
(-0.583496 -0.964062 0)
(-0.820623 -0.653285 0)
(-0.875084 -0.492497 0)
(-0.585608 -0.345367 0)
(-0.310535 -0.254732 0)
(-0.199119 -0.245316 0)
(0.143853 0.354544 0)
(0.0910366 0.875173 0)
(0.203057 1.37233 0)
(0.0362353 1.13501 0)
(0.0858705 1.17371 0)
(0.105601 1.19999 0)
(0.250169 1.08946 0)
(0.673941 1.20777 0)
(0.489063 1.08232 0)
(0.53147 0.618454 0)
(0.75067 0.535915 0)
(1.09143 0.157438 0)
(1.07848 -0.0640944 0)
(1.26972 -0.459605 0)
(1.13576 -0.796295 0)
(0.394873 -1.01397 0)
(0.343946 -0.68379 0)
(-0.14014 -0.619871 0)
(-0.349494 -0.779274 0)
(-0.374425 -0.529078 0)
(-0.465416 -0.435732 0)
(-0.286995 -0.361016 0)
(-0.144699 -0.499934 0)
(0.111857 0.121988 0)
(0.212101 0.930258 0)
(0.236559 1.3702 0)
(0.101123 1.15659 0)
(0.228154 1.06822 0)
(-0.032346 0.971623 0)
(0.0231621 0.900089 0)
(0.348819 0.709179 0)
(0.461358 0.568384 0)
(0.758982 0.418604 0)
(0.959079 0.35019 0)
(1.25126 0.0906069 0)
(1.25451 -0.20971 0)
(1.31457 -0.343123 0)
(1.26398 -0.50841 0)
(0.960048 -0.674499 0)
(0.716566 -0.550045 0)
(0.282989 -0.322879 0)
(-0.104488 -0.286493 0)
(-0.176262 -0.385321 0)
(-0.290409 -0.351991 0)
(-0.308121 -0.330789 0)
(-0.218776 -0.50548 0)
(-0.13805 0.0622731 0)
(0.203735 1.03034 0)
(0.137045 1.31474 0)
(0.11705 1.13098 0)
(0.32892 0.717983 0)
(0.205862 0.691107 0)
(0.215687 0.611442 0)
(0.383237 0.354703 0)
(0.755826 0.28117 0)
(1.09872 0.156035 0)
(1.34954 0.0360947 0)
(1.41872 -0.0668927 0)
(1.28015 -0.0923481 0)
(1.2161 -0.0753955 0)
(1.13301 -0.0979872 0)
(0.77299 -0.129015 0)
(0.479831 0.029189 0)
(0.086794 0.104997 0)
(-0.193953 -0.0205804 0)
(-0.171126 -0.289431 0)
(-0.249778 -0.312112 0)
(-0.176485 -0.397399 0)
(-0.206463 -0.44475 0)
(-0.502655 -0.0178548 0)
(0.0893261 1.00615 0)
(0.0266884 1.20184 0)
(0.219542 1.14775 0)
(0.649876 0.637412 0)
(0.682094 0.475879 0)
(0.718333 0.576931 0)
(0.805224 0.0677116 0)
(1.08121 -0.00967014 0)
(1.2386 0.0542507 0)
(1.25411 0.127601 0)
(1.13625 0.0876378 0)
(1.01049 -0.0469616 0)
(0.972874 -0.0775095 0)
(0.875055 -0.0608607 0)
(0.556867 -0.0484942 0)
(0.49565 0.155056 0)
(0.197555 0.4141 0)
(-0.0257872 0.13554 0)
(-0.090459 -0.276614 0)
(-0.228568 -0.373088 0)
(-0.171222 -0.5513 0)
(-0.12797 -0.545539 0)
(-0.714537 0.22592 0)
(-0.162905 0.922517 0)
(-0.236241 1.02699 0)
(0.477086 1.13693 0)
(0.796345 0.795368 0)
(1.33795 0.0655122 0)
(1.16899 -0.0954757 0)
(1.02366 -0.0914792 0)
(1.0458 -0.072197 0)
(1.09 0.0155085 0)
(1.13336 0.121637 0)
(1.09104 0.103549 0)
(0.928299 0.0590931 0)
(0.80711 0.149686 0)
(0.525331 0.255839 0)
(0.425891 0.231148 0)
(0.495143 0.376187 0)
(0.228155 0.577291 0)
(-0.0891782 0.234876 0)
(-0.114746 -0.234148 0)
(-0.17269 -0.448338 0)
(-0.0370398 -0.610908 0)
(-0.0545257 -0.563361 0)
(-0.770812 0.429551 0)
(0.174329 1.03914 0)
(-0.704065 0.372638 0)
(0.629348 0.604678 0)
(0.758636 0.58097 0)
(0.812902 0.442439 0)
(0.923577 0.0468341 0)
(0.992147 0.0321983 0)
(1.09657 -0.0329321 0)
(1.15151 0.00370148 0)
(1.16331 0.150418 0)
(1.07299 0.211947 0)
(0.845632 0.159549 0)
(0.634799 0.345096 0)
(0.574217 0.302167 0)
(0.537497 0.34114 0)
(0.473048 0.599653 0)
(0.231195 0.919444 0)
(-0.00266766 0.517325 0)
(-0.1249 -0.20436 0)
(-0.118095 -0.349455 0)
(0.0205966 -0.647084 0)
(0.00286336 -0.601163 0)
(-0.773505 0.456271 0)
(0.612543 1.24568 0)
(-0.159215 0.215025 0)
(0.613223 0.283192 0)
(0.837138 -0.185401 0)
(0.961428 -0.361985 0)
(1.20516 -0.451727 0)
(1.3108 -0.345272 0)
(1.40292 -0.205685 0)
(1.40562 0.0141542 0)
(1.20876 0.384736 0)
(0.801463 0.447109 0)
(0.778636 0.470556 0)
(0.686713 0.48109 0)
(0.632705 0.355015 0)
(0.529075 0.411171 0)
(0.100097 0.96171 0)
(0.0380964 1.04878 0)
(-0.091773 0.442778 0)
(0.205355 -0.193467 0)
(0.0484552 -0.432211 0)
(0.0508127 -0.672238 0)
(0.0457826 -0.593021 0)
(-0.737056 0.473726 0)
(0.710011 0.922939 0)
(0.182107 0.203184 0)
(0.645842 0.027601 0)
(0.72614 -0.42012 0)
(0.718908 -0.385405 0)
(0.864223 -0.498933 0)
(0.901441 -0.461704 0)
(1.03384 -0.215598 0)
(1.23858 0.29578 0)
(0.969421 0.477213 0)
(0.577087 0.887626 0)
(0.595542 0.86588 0)
(0.618697 0.507962 0)
(0.535834 0.379015 0)
(0.40221 0.511091 0)
(-0.134833 1.5481 0)
(-0.0984259 1.13355 0)
(-0.0121952 0.419863 0)
(0.0667787 -0.131784 0)
(0.0191773 -0.595529 0)
(0.163052 -0.696953 0)
(0.0173067 -0.599001 0)
(-0.629629 0.463975 0)
(0.652469 0.481421 0)
(0.410607 0.128154 0)
(0.361893 -0.327521 0)
(0.241132 -0.212453 0)
(0.402743 -0.213666 0)
(0.46231 -0.311805 0)
(0.481212 -0.140752 0)
(0.730822 0.324879 0)
(0.644904 0.264619 0)
(0.558072 0.359692 0)
(0.450707 0.797128 0)
(0.464962 0.796039 0)
(0.472616 0.511336 0)
(0.465716 0.549121 0)
(0.263588 0.906985 0)
(-0.467805 1.68089 0)
(-0.46261 0.795088 0)
(-0.0934361 0.249437 0)
(-0.052874 -0.174563 0)
(0.0573695 -0.417465 0)
(0.202105 -0.673885 0)
(0.0640755 -0.598753 0)
(-0.514562 0.462881 0)
(0.282297 0.320632 0)
(0.189095 0.303926 0)
(0.0254424 -0.175889 0)
(-0.0877113 -0.347544 0)
(0.158286 -0.541091 0)
(0.138546 -0.5373 0)
(-0.0131106 -0.367567 0)
(0.130052 0.00014785 0)
(-0.0541596 0.167648 0)
(0.158654 0.2967 0)
(0.124971 0.456822 0)
(0.291208 0.573043 0)
(0.348822 0.525195 0)
(0.128822 0.711598 0)
(-0.206067 1.20117 0)
(-0.56471 1.52198 0)
(-0.435596 0.534366 0)
(-0.0185966 0.159395 0)
(0.115645 -0.187967 0)
(0.184935 -0.573053 0)
(0.178607 -0.694567 0)
(-0.00180385 -0.747744 0)
(-0.3976 0.54394 0)
(-0.1941 0.17848 0)
(-0.237157 0.0998072 0)
(-0.105457 -0.23797 0)
(-0.194997 -0.400546 0)
(-0.23236 -0.430577 0)
(-0.311592 -0.277971 0)
(-0.429878 -0.121247 0)
(-0.341961 0.118118 0)
(-0.396622 0.22264 0)
(-0.141524 0.329113 0)
(-0.0201648 0.440677 0)
(0.200296 0.610288 0)
(-0.0837116 0.69663 0)
(-0.315634 1.02392 0)
(-0.321135 1.37976 0)
(-0.456681 1.39675 0)
(-0.17914 0.696707 0)
(-0.174677 -0.0538785 0)
(0.106585 -0.412675 0)
(0.138212 -0.720778 0)
(0.133656 -0.681183 0)
(0.146854 -0.688744 0)
(-0.215248 0.869266 0)
(-0.0614672 0.310962 0)
(-0.197831 0.169934 0)
(-0.301918 -0.276664 0)
(-0.230418 -0.507674 0)
(-0.353202 -0.368375 0)
(-0.4919 -0.320157 0)
(-0.542035 -0.135578 0)
(-0.348128 -0.0172139 0)
(-0.31396 0.123148 0)
(-0.213237 0.184682 0)
(-0.206363 0.513694 0)
(-0.0353011 0.684297 0)
(-0.363856 1.04934 0)
(-0.428097 1.58363 0)
(-0.414545 1.61245 0)
(-0.0383546 1.27597 0)
(-0.145923 0.565245 0)
(0.106621 -0.210538 0)
(0.200689 -0.51768 0)
(0.244641 -0.727195 0)
(0.26486 -0.592857 0)
(0.193181 -0.491772 0)
(0.0797559 0.816681 0)
(0.26859 0.769342 0)
(-0.0946904 0.330055 0)
(-0.230437 -0.0631963 0)
(-0.2549 -0.283389 0)
(-0.425153 -0.358477 0)
(-0.488605 -0.392491 0)
(-0.52723 -0.297952 0)
(-0.475785 -0.249025 0)
(-0.590032 -0.122103 0)
(-0.521867 0.0347376 0)
(-0.265789 0.330729 0)
(-0.242852 0.715271 0)
(-0.296221 0.949022 0)
(-0.326777 1.46223 0)
(-0.433804 1.53635 0)
(0.0322232 0.861256 0)
(0.167454 0.164106 0)
(0.348514 -0.370236 0)
(0.238289 -0.585337 0)
(0.325405 -0.589093 0)
(0.362162 -0.572369 0)
(0.272049 -0.48738 0)
(0.128086 0.470765 0)
(0.227547 0.87233 0)
(0.0108792 0.529859 0)
(0.125848 0.396746 0)
(-0.342596 -0.0799268 0)
(-0.423646 -0.243764 0)
(-0.550287 -0.225514 0)
(-0.589478 -0.218553 0)
(-0.569792 -0.150589 0)
(-0.65652 -0.121366 0)
(-0.70552 0.110766 0)
(-0.699528 0.214095 0)
(-0.642457 0.635441 0)
(-0.458892 0.755668 0)
(-0.230158 1.07218 0)
(-0.287154 1.40588 0)
(0.270844 0.827471 0)
(0.583102 0.0677225 0)
(0.555886 -0.288385 0)
(0.432446 -0.481991 0)
(0.376706 -0.459344 0)
(0.335874 -0.411737 0)
(0.179522 -0.398882 0)
(0.0857795 0.398741 0)
(0.0738428 1.12304 0)
(-0.153662 0.985572 0)
(-0.112354 0.573854 0)
(-0.543621 0.290892 0)
(-0.3672 0.0110999 0)
(-0.385252 -0.0790721 0)
(-0.496414 -0.0994872 0)
(-0.552723 -0.0566516 0)
(-0.666292 0.0213732 0)
(-0.699127 0.129778 0)
(-0.633946 0.249414 0)
(-0.713806 0.551074 0)
(-0.437621 0.776663 0)
(-0.120057 0.829989 0)
(0.0146237 0.963971 0)
(0.532174 0.467631 0)
(0.797531 -0.227062 0)
(0.734622 -0.448491 0)
(0.49204 -0.511374 0)
(0.321048 -0.424083 0)
(0.284772 -0.344323 0)
(0.178912 -0.295317 0)
(0.00781125 0.382112 0)
(-0.107793 1.26481 0)
(-0.127931 1.04824 0)
(-0.271805 0.589044 0)
(-0.545136 0.424691 0)
(-0.307778 0.15276 0)
(-0.280426 0.0403341 0)
(-0.338674 0.00258058 0)
(-0.348987 0.0248236 0)
(-0.413402 0.0293954 0)
(-0.40652 0.0411636 0)
(-0.288708 0.0784117 0)
(-0.400562 0.433141 0)
(-0.199169 0.677224 0)
(-0.0998641 0.623608 0)
(0.268351 0.73976 0)
(0.677241 0.299356 0)
(0.78375 0.0435271 0)
(0.606854 -0.307354 0)
(0.383732 -0.380338 0)
(0.370825 -0.340717 0)
(0.286573 -0.316019 0)
(0.147617 -0.205281 0)
(-0.0671733 0.439791 0)
(-0.207447 1.51139 0)
(-0.103783 1.17343 0)
(-0.375844 0.623059 0)
(-0.515136 0.422746 0)
(-0.224733 0.180601 0)
(-0.282376 -0.0291026 0)
(-0.313118 -0.031002 0)
(-0.143505 0.0390009 0)
(-0.12322 0.0882646 0)
(-0.0915753 0.118523 0)
(-0.0946745 0.138181 0)
(-0.0651902 0.288902 0)
(0.0437743 0.370719 0)
(0.201213 0.378921 0)
(0.337717 0.446287 0)
(0.504964 0.238752 0)
(0.664092 -0.198751 0)
(0.486583 -0.317958 0)
(0.435151 -0.246068 0)
(0.240724 -0.273167 0)
(0.250082 -0.326604 0)
(0.184295 -0.238148 0)
(-0.115006 0.522607 0)
(-0.200263 1.69616 0)
(-0.171202 1.24105 0)
(-0.361619 0.622476 0)
(-0.296535 0.274739 0)
(-0.267085 0.0242968 0)
(-0.241602 -0.0909104 0)
(-0.120215 -0.0643204 0)
(-0.130379 -0.013146 0)
(-0.0484926 -0.00562272 0)
(-0.0169818 -0.0279668 0)
(0.00931477 0.0316441 0)
(0.0312847 0.131913 0)
(0.0640323 0.1508 0)
(0.225466 0.321852 0)
(0.608918 0.183285 0)
(0.640775 0.153086 0)
(0.55113 0.102566 0)
(0.456306 0.0218026 0)
(0.376716 -0.157918 0)
(0.214594 -0.194362 0)
(0.266881 -0.22553 0)
(0.290852 -0.223566 0)
(-0.029703 0.637832 0)
(0.0420909 1.9107 0)
(-0.149291 1.40389 0)
(-0.343952 0.813574 0)
(-0.340483 0.244724 0)
(-0.201445 -0.0441517 0)
(-0.114039 -0.0602816 0)
(-0.107317 -0.122863 0)
(-0.0641338 -0.0673826 0)
(-0.0229375 -0.027331 0)
(-0.00397208 0.00527002 0)
(-0.000386279 0.0137523 0)
(0.0627937 0.0405291 0)
(0.238123 0.118897 0)
(0.314246 0.303243 0)
(0.366587 0.235485 0)
(0.479049 -0.101752 0)
(0.430047 -0.0926176 0)
(0.301 -0.129662 0)
(0.316652 -0.1286 0)
(0.274109 -0.101779 0)
(0.303264 -0.105572 0)
(0.334019 -0.187346 0)
(-0.0819952 1.13954 0)
(-0.0470137 1.98134 0)
(-0.160216 1.46425 0)
(-0.261431 0.844382 0)
(-0.353834 0.169195 0)
(-0.119826 -0.0316718 0)
(-0.0837174 -0.171731 0)
(-0.015538 -0.137692 0)
(-0.00385398 -0.17363 0)
(0.0230027 -0.132364 0)
(0.0195363 -0.0737237 0)
(0.055174 -0.0698704 0)
(0.105227 0.0479073 0)
(0.283825 -0.0105975 0)
(0.318685 0.0447631 0)
(0.334579 0.0679033 0)
(0.394778 0.0129144 0)
(0.367899 -0.0622439 0)
(0.360394 -0.0372211 0)
(0.349356 0.0157827 0)
(0.321807 -0.018993 0)
(0.273295 -0.0546953 0)
(0.249401 -0.127781 0)
(-0.155726 1.34659 0)
(-0.193209 2.0448 0)
(-0.271112 1.5428 0)
(-0.275774 0.813914 0)
(-0.236187 0.151837 0)
(0.0126834 -0.145439 0)
(0.0720388 -0.160588 0)
(0.0317152 -0.107433 0)
(-0.00419602 -0.100262 0)
(0.0848036 -0.0882148 0)
(0.0484664 -0.0434213 0)
(0.120606 -0.0426307 0)
(0.11525 -0.00312581 0)
(0.147958 0.0165039 0)
(0.313489 -0.0356909 0)
(0.208946 -0.00677759 0)
(0.243641 -0.0438249 0)
(0.417836 -0.135627 0)
(0.424933 -0.0596056 0)
(0.363042 -0.0951951 0)
(0.202906 -0.0310264 0)