/*--------------------------------*- C++ -*----------------------------------*\
| =========                 |                                                 |
| \\      /  F ield         | foam-extend: Open Source CFD                    |
|  \\    /   O peration     | Version:     4.1                                |
|   \\  /    A nd           | Web:         http://www.foam-extend.org         |
|    \\/     M anipulation  |                                                 |
\*---------------------------------------------------------------------------*/
FoamFile
{
    version     2.0;
    format      ascii;
    class       volScalarField;
    location    "0.95";
    object      alpha1;
}
// * * * * * * * * * * * * * * * * * * * * * * * * * * * * * * * * * * * * * //

dimensions      [0 0 0 0 0 0 0];

internalField   nonuniform List<scalar> 
2268
(
0.642022
0.674204
0.694301
0.72102
0.754194
0.745603
0.706017
0.724177
0.787454
0.971622
0.998628
0.998952
0.999582
0.99916
0.999854
0.9999
0.999962
0.999955
0.999442
0.997901
0.997296
0.955005
0.657602
0.631544
0.666751
0.685703
0.776908
0.823541
0.826882
0.824961
0.879705
0.919798
0.958173
0.995113
0.993574
0.998355
0.991789
0.998918
0.99945
0.999884
0.999962
0.999867
0.999603
0.99969
0.993902
0.94767
0.611441
0.636773
0.652727
0.742136
0.774165
0.79356
0.805969
0.812764
0.784272
0.820539
0.980723
0.990004
0.988326
0.947823
0.990827
0.997394
0.999574
0.999902
0.999954
0.999938
0.99972
0.997704
0.988414
0.572276
0.541864
0.528892
0.623191
0.75491
0.797984
0.830991
0.879873
0.911988
0.957953
0.972305
0.952209
0.895306
0.7838
0.965465
0.991666
0.997414
0.999286
0.999839
0.99982
0.999675
0.997235
0.99231
0.524949
0.486009
0.558177
0.729527
0.775287
0.794767
0.820557
0.906666
0.938897
0.952184
0.947014
0.857196
0.776964
0.694873
0.91
0.970793
0.985223
0.995285
0.998278
0.998915
0.998757
0.993777
0.991538
0.510205
0.490066
0.545461
0.657521
0.707731
0.641083
0.651989
0.751793
0.831504
0.920491
0.922289
0.786664
0.748696
0.672141
0.853738
0.925875
0.935609
0.970724
0.979415
0.992432
0.992739
0.98371
0.985885
0.504665
0.48771
0.53365
0.597559
0.638207
0.530278
0.615684
0.647747
0.696438
0.765237
0.829572
0.673736
0.743031
0.678771
0.81917
0.860209
0.788139
0.869169
0.898703
0.949028
0.968044
0.963867
0.956018
0.496848
0.477554
0.517413
0.544306
0.577671
0.424296
0.578973
0.564761
0.570902
0.534519
0.675864
0.592844
0.667387
0.675412
0.724024
0.721007
0.642251
0.72152
0.761916
0.785167
0.864851
0.900597
0.837147
0.57758
0.563619
0.581471
0.614546
0.632682
0.640862
0.643149
0.64267
0.654456
0.654014
0.65255
0.640497
0.632464
0.629873
0.627565
0.634015
0.635467
0.659662
0.648971
0.581537
0.555934
0.570476
0.588124
0.594343
0.577659
0.556103
0.587308
0.615717
0.614419
0.593859
0.58499
0.523345
0.496998
0.527104
0.578265
0.580727
0.637128
0.636279
0.585362
0.549911
0.548834
0.548579
0.524418
0.456704
0.438899
0.455883
0.492824
0.503765
0.440453
0.433368
0.441711
0.378863
0.456497
0.509949
0.523139
0.616171
0.630759
0.591403
0.546832
0.542064
0.536162
0.500369
0.399442
0.355712
0.340586
0.341901
0.34049
0.336925
0.339825
0.352726
0.385174
0.421574
0.445946
0.488988
0.580144
0.624023
0.594652
0.542735
0.532559
0.518137
0.459498
0.38576
0.349606
0.324861
0.304721
0.292698
0.302822
0.364229
0.327673
0.384337
0.412793
0.441022
0.476302
0.549086
0.61868
0.597758
0.535019
0.508534
0.459428
0.406984
0.335258
0.320799
0.331432
0.335209
0.333453
0.307255
0.44588
0.398727
0.406749
0.408457
0.422565
0.458391
0.534787
0.619068
0.594695
0.515542
0.452938
0.37398
0.337161
0.274859
0.284742
0.249281
0.34773
0.390986
0.369977
0.448551
0.438462
0.43024
0.418956
0.413406
0.435114
0.514329
0.613532
0.587168
0.465441
0.352229
0.290637
0.283136
0.282873
0.343398
0.30414
0.416542
0.450195
0.403093
0.440606
0.437617
0.428245
0.40814
0.404274
0.420239
0.480233
0.607212
0.451552
0.348605
0.375789
0.371784
0.428227
0.483501
0.545115
0.522782
0.456658
0.447458
0.515116
0.562427
0.596469
0.619373
0.607238
0.577135
0.55648
0.582409
0.580558
0.584147
0.662641
0.644645
0.514917
0.437338
0.25988
0.213587
0.297415
0.36752
0.388945
0.438903
0.53493
0.438125
0.425685
0.535425
0.6035
0.598532
0.545331
0.525025
0.522451
0.52372
0.524288
0.544559
0.55966
0.564652
0.55549
0.512151
0.422244
0.229519
0.188143
0.252611
0.325646
0.355799
0.293577
0.406526
0.416735
0.450339
0.51648
0.583589
0.549324
0.52484
0.52519
0.548662
0.564123
0.566477
0.561243
0.551669
0.536438
0.520387
0.503844
0.367204
0.21437
0.211879
0.239355
0.295285
0.356541
0.36625
0.376605
0.397192
0.481175
0.547737
0.577303
0.533992
0.516127
0.517011
0.536775
0.568738
0.584698
0.589743
0.581157
0.552709
0.525487
0.484668
0.280297
0.217925
0.226048
0.225413
0.258474
0.312343
0.295642
0.308257
0.42108
0.500716
0.53416
0.527414
0.479688
0.462411
0.461849
0.505416
0.527288
0.54419
0.553684
0.543883
0.46547
0.372203
0.27492
0.226653
0.212979
0.210265
0.204898
0.199032
0.242701
0.205621
0.240893
0.388796
0.453436
0.473643
0.44185
0.374438
0.348748
0.376681
0.422868
0.416492
0.375318
0.353447
0.344448
0.293915
0.256014
0.247338
0.185915
0.178402
0.15184
0.169461
0.129991
0.166
0.162219
0.248279
0.317881
0.332927
0.343323
0.333983
0.281777
0.274753
0.307677
0.321659
0.278936
0.247714
0.243028
0.244645
0.23966
0.241652
0.264702
0.15769
0.125997
0.0753118
0.0929805
0.074653
0.110852
0.125888
0.209097
0.256284
0.272989
0.266035
0.230498
0.210706
0.209216
0.21216
0.218455
0.205953
0.192306
0.190234
0.195141
0.208828
0.228391
0.241604
0.127247
0.102143
0.0578667
0.0420403
0.0448292
0.0717154
0.0877032
0.137148
0.207647
0.239402
0.212797
0.163523
0.153662
0.164682
0.169547
0.174721
0.177709
0.17654
0.177405
0.196921
0.217498
0.226853
0.227749
0.0772004
0.0546714
0.0370602
0.0248718
0.0310116
0.0428749
0.0457676
0.0569681
0.122034
0.197733
0.206769
0.157917
0.132814
0.150491
0.151779
0.152239
0.156368
0.161836
0.168569
0.179052
0.180695
0.168302
0.141077
0.0343709
0.0260972
0.02338
0.0127494
0.01763
0.0217681
0.0176321
0.0224954
0.0473738
0.125505
0.175388
0.145616
0.124065
0.130936
0.127443
0.126916
0.13769
0.144375
0.151311
0.160422
0.161586
0.138573
0.0844012
0.0179962
0.0157439
0.0111278
0.00856684
0.0115872
0.0128339
0.0146612
0.0169454
0.0443711
0.0906668
0.137984
0.131358
0.107593
0.113546
0.122097
0.1276
0.136838
0.142414
0.146265
0.146897
0.12952
0.0696519
0.0306047
0.0119859
0.00965999
0.00950968
0.00984507
0.0132268
0.0153001
0.0194944
0.0208239
0.0516183
0.0854253
0.103457
0.102649
0.0853847
0.104134
0.114238
0.12883
0.1344
0.135802
0.132085
0.111874
0.0619531
0.0212777
0.0079266
0.0108448
0.0132694
0.0156358
0.0197298
0.0244233
0.0260622
0.0329318
0.038494
0.061371
0.0738549
0.0803186
0.0844709
0.0917453
0.11014
0.120328
0.126614
0.129502
0.119755
0.0894296
0.0442183
0.0133475
0.0041236
0.00175112
0.00940308
0.0146441
0.0215175
0.0300141
0.0380624
0.0408925
0.0476409
0.0550833
0.0666137
0.0743409
0.0830141
0.0922054
0.103337
0.113081
0.11717
0.118512
0.110116
0.0760132
0.0258372
0.00791936
0.00201886
0.000902732
0.000408018
0.0108356
0.0213915
0.0365245
0.0465783
0.053308
0.0578646
0.0628051
0.0686433
0.0743728
0.0791187
0.0868185
0.0950653
0.103869
0.107937
0.106724
0.0924453
0.0644025
0.0227063
0.00457635
0.00145417
0.000755541
0.000457032
0.000210506
0.0117926
0.0265066
0.0386848
0.0461214
0.0517239
0.0581208
0.0653137
0.0708224
0.0757005
0.0805499
0.0871689
0.0922191
0.0948566
0.0876383
0.0711141
0.0367837
0.0124368
0.0029198
0.00138431
0.000811496
0.000641428
0.000419847
0.000157328
0.0118265
0.0266468
0.0375623
0.0444243
0.0520883
0.0595989
0.0645712
0.0676433
0.0699474
0.071754
0.0711588
0.0682349
0.053021
0.0438583
0.0195455
0.00505017
0.001705
0.00117818
0.000712741
0.000570667
0.000484256
0.000422395
0.000128007
0.0118577
0.0260424
0.0357074
0.0426705
0.0502716
0.05552
0.0563493
0.0524296
0.0527337
0.0413389
0.0344704
0.0269495
0.0156791
0.0113445
0.00310394
0.00135535
0.000969855
0.000785421
0.000270679
0.00014684
0.000108697
0.000195879
6.61713e-05
0.0109053
0.0238111
0.0323321
0.0384268
0.0442238
0.0474471
0.0448052
0.0308709
0.0247259
0.0141936
0.0121536
0.00871421
0.0053945
0.00334974
0.00140482
0.000783463
0.000413389
0.000315208
0.00010102
4.29674e-05
2.6014e-05
2.63432e-05
1.44405e-05
0.0106985
0.021257
0.0279274
0.0311055
0.0342298
0.0351306
0.0256884
0.0136322
0.00834097
0.00517209
0.00501904
0.00385608
0.00291029
0.00174191
0.000830423
0.000259284
0.000134239
0.00012491
5.97785e-05
2.34229e-05
1.15285e-05
5.28071e-06
4.6215e-06
0.0101618
0.0189175
0.0241788
0.0253327
0.027214
0.0262344
0.0192155
0.00970767
0.00494728
0.00314193
0.002945
0.00240438
0.00191821
0.000813304
0.000409563
0.000123046
6.21915e-05
4.82046e-05
3.65925e-05
1.45815e-05
6.94033e-06
2.08425e-06
1.45578e-06
0.00940989
0.0167903
0.0202781
0.0205648
0.022619
0.0220725
0.0162187
0.0105141
0.00483438
0.00248773
0.00188099
0.00120386
0.000752036
0.000275118
0.000169211
6.39134e-05
2.96253e-05
2.11797e-05
2.03012e-05
9.09288e-06
3.96995e-06
8.66995e-07
3.66709e-07
0.00847989
0.0143478
0.0161815
0.016751
0.0191194
0.0190025
0.0147855
0.00869963
0.00377991
0.00186339
0.0011848
0.000626245
0.000457251
0.000221635
7.28761e-05
2.60837e-05
1.10674e-05
6.4582e-06
8.34416e-06
5.17672e-06
2.11708e-06
3.84476e-07
1.11837e-07
0.00734932
0.0118636
0.0132693
0.0143325
0.0165763
0.0155832
0.0124212
0.00556611
0.00220436
0.00117197
0.000944159
0.000824999
0.000744958
0.000211704
3.33982e-05
1.10941e-05
4.66887e-06
1.99053e-06
1.94736e-06
1.49384e-06
1.04847e-06
1.55081e-07
4.02024e-08
0.00595459
0.00961112
0.0106723
0.0117786
0.0143885
0.0140894
0.011808
0.00592796
0.00287741
0.00156341
0.00122171
0.00174559
0.000840016
0.000190494
1.68367e-05
5.51585e-06
2.16409e-06
7.65092e-07
4.19322e-07
3.52277e-07
2.505e-07
4.40981e-08
1.15934e-08
0.00486367
0.00769071
0.00808728
0.0092422
0.012875
0.0135255
0.0112862
0.0057031
0.00371144
0.00299522
0.00258777
0.00111985
0.000269535
4.42358e-05
8.27715e-06
2.58298e-06
9.22265e-07
3.27137e-07
1.15653e-07
5.3903e-08
4.23246e-08
1.22324e-08
3.45972e-09
0.00393815
0.00609658
0.00612813
0.00800043
0.0119341
0.0128537
0.01013
0.00482658
0.00317571
0.00276107
0.00235313
0.000203481
4.64549e-05
1.23616e-05
3.45249e-06
9.62175e-07
2.44826e-07
1.56923e-07
5.9892e-08
1.35073e-08
6.9318e-09
3.30194e-09
1.31952e-09
0.00324426
0.00455638
0.00468422
0.00676951
0.0111035
0.0121044
0.00850124
0.00245197
0.00126758
0.000630721
0.000103758
5.57648e-05
2.67962e-05
6.51294e-06
1.52961e-06
3.62849e-07
8.525e-08
5.11178e-08
2.23002e-08
4.87518e-09
1.73857e-09
7.80708e-10
1.45801e-10
0.00284822
0.00357167
0.00400053
0.00615153
0.0103708
0.0113083
0.00632376
0.000906808
0.00046623
0.000240475
0.0001191
4.45373e-05
1.68164e-05
4.32175e-06
1.17567e-06
2.38519e-07
4.59651e-08
1.53454e-08
4.88595e-09
1.46684e-09
3.19501e-10
1.46694e-10
2.77879e-11
0.0027032
0.00319524
0.00390718
0.00613067
0.00984946
0.0103886
0.00459659
0.000660127
0.00037853
0.000209387
0.000101026
3.77258e-05
1.34455e-05
4.41022e-06
1.24355e-06
2.03727e-07
2.58824e-08
5.31791e-09
1.3685e-09
4.10736e-10
9.00856e-11
3.62842e-11
5.79087e-12
0.00270076
0.00319303
0.00405454
0.00625413
0.00938243
0.0096095
0.00388946
0.000752805
0.000484924
0.000304493
0.000124869
3.74248e-05
1.2834e-05
4.06863e-06
1.26921e-06
1.11079e-07
1.26226e-08
1.87917e-09
2.78923e-10
7.69824e-11
2.57672e-11
1.21351e-11
9.51128e-13
0.00277974
0.00342688
0.00462847
0.00657167
0.00894356
0.00918406
0.0040346
0.00108078
0.000889678
0.000381426
0.00013754
3.80799e-05
9.09637e-06
2.02111e-06
2.38143e-07
4.71549e-08
4.73998e-09
6.51197e-10
6.824e-11
1.03768e-11
1.81299e-12
8.19789e-13
1.09968e-13
0.0030607
0.00432376
0.0056906
0.00695152
0.00849548
0.008842
0.00486215
0.00201274
0.00144865
0.000501861
0.000143694
3.27909e-05
6.62382e-06
1.7548e-06
1.5389e-07
2.13711e-08
3.45221e-09
4.75879e-10
2.55745e-11
2.26597e-12
2.6823e-13
5.2347e-14
2.18159e-14
0.00361449
0.00564525
0.00656159
0.00714535
0.00799082
0.00827806
0.00603199
0.00384508
0.00228826
0.000695276
0.000177069
2.77997e-05
5.05934e-06
8.93118e-07
1.41346e-07
2.10421e-08
1.87366e-09
1.3338e-10
1.83125e-11
9.997e-13
1.04694e-13
2.08722e-14
1.53766e-14
0.00400711
0.00637306
0.00694524
0.00716042
0.00736433
0.00741503
0.00602467
0.00406994
0.00119399
0.000262907
7.56597e-05
2.41324e-05
5.80513e-06
9.33884e-07
1.41298e-07
1.59573e-08
1.66855e-09
1.03016e-10
5.3979e-12
4.3815e-13
6.95e-14
1.37668e-14
1.38778e-14
0.00425735
0.00666849
0.00701649
0.0070633
0.00645511
0.00622986
0.00544962
0.00383879
0.00155444
0.000559516
0.000182575
4.63759e-05
9.78024e-06
8.10597e-07
1.26629e-07
1.34625e-08
9.83379e-10
7.92688e-11
3.37613e-12
1.0969e-13
2.13163e-14
1.14353e-14
1.54321e-14
0.0044076
0.00675578
0.00695161
0.00669708
0.0048571
0.00469158
0.00362723
0.00215322
0.000609652
0.00016919
3.94866e-05
7.51442e-06
1.07044e-06
1.49055e-07
1.07567e-08
4.43134e-10
2.07002e-11
1.04455e-12
6.87783e-14
1.84297e-14
1.33227e-14
1.08247e-14
1.44329e-14
0.00442615
0.00672122
0.00663367
0.00586111
0.00282318
0.00304147
0.0017595
0.0010858
0.000457471
0.000165871
5.01514e-05
9.13832e-06
1.32605e-06
6.91098e-08
5.57428e-09
7.37991e-10
4.25636e-11
2.48002e-12
5.36238e-14
1.34337e-14
1.19904e-14
1.19349e-14
1.34892e-14
0.00438805
0.00649747
0.0056726
0.00444389
0.00181848
0.00195819
0.0010984
0.000547495
0.000178146
3.79596e-05
6.41633e-06
1.08372e-06
1.10068e-07
1.07863e-08
9.95247e-10
5.46187e-11
2.15045e-12
7.76601e-14
1.48215e-14
1.15463e-14
9.71445e-15
1.14908e-14
1.37668e-14
0.00428872
0.00607351
0.00429636
0.00296708
0.00172673
0.00157776
0.000991439
0.000454843
0.000147716
3.75689e-05
5.92704e-06
6.71233e-07
5.63953e-08
1.76271e-09
5.0635e-11
2.8359e-12
1.12022e-13
1.40998e-14
1.07692e-14
1.18239e-14
1.17684e-14
1.37113e-14
1.27676e-14
0.00407991
0.00518131
0.00343133
0.00234532
0.00167283
0.00111024
0.000457991
7.76066e-05
1.62783e-05
3.86812e-06
6.95925e-07
5.5365e-08
3.82084e-09
2.71958e-10
9.12193e-12
1.15741e-13
1.15463e-14
1.07692e-14
1.43774e-14
1.39888e-14
1.32117e-14
1.88738e-14
1.2601e-14
0.510315
0.515127
0.518631
0.520612
0.508479
0.508674
0.507382
0.50172
0.493859
0.486144
0.478168
0.469734
0.437899
0.385267
0.347365
0.319435
0.253007
0.248022
0.262943
0.276911
0.272883
0.284078
0.298592
0.311576
0.275165
0.282357
0.289121
0.295155
0.248403
0.251082
0.252803
0.254313
0.223098
0.21957
0.216162
0.213849
0.118179
0.11072
0.103296
0.0994158
0.0513277
0.0440547
0.0376096
0.0352609
0.0186056
0.0143726
0.0124454
0.0125371
0.004011
0.00280352
0.00280223
0.00327815
0.000909343
0.000553409
0.000503329
0.000553486
0.000144069
8.35981e-05
5.87807e-05
4.81669e-05
5.28445e-05
2.59793e-05
1.32041e-05
6.53088e-06
4.2028e-05
1.78899e-05
5.91078e-06
2.73499e-06
4.33824e-05
2.56418e-05
1.34245e-05
3.05543e-06
2.87031e-05
1.82376e-05
2.46982e-05
1.96419e-06
5.59129e-06
2.93836e-06
3.11423e-06
1.32076e-06
2.98241e-06
1.37021e-06
1.39297e-06
8.35416e-07
9.03002e-07
5.33355e-07
5.23342e-07
2.48631e-07
3.45347e-07
2.42935e-07
2.12279e-07
1.14027e-07
6.49872e-08
5.68592e-08
3.18079e-08
1.97462e-08
2.21951e-08
9.43604e-09
3.07463e-09
3.14614e-09
9.93054e-09
2.73444e-09
5.36924e-10
2.55482e-10
2.59418e-09
1.78772e-09
2.94653e-10
7.12098e-11
4.03953e-10
2.388e-10
6.21094e-11
1.37367e-11
3.43067e-11
3.24653e-11
1.62499e-11
7.29672e-12
7.69468e-12
5.18641e-12
2.25481e-12
7.8354e-13
1.47254e-12
3.42726e-13
1.31339e-13
5.49005e-14
8.13238e-13
1.59872e-13
3.9746e-14
1.56541e-14
7.222e-14
2.62568e-14
1.08247e-14
9.71445e-15
1.19349e-14
1.07137e-14
1.01585e-14
1.16573e-14
1.13798e-14
9.71445e-15
1.16573e-14
1.31006e-14
1.21014e-14
1.10467e-14
1.27676e-14
1.28231e-14
1.38778e-14
1.2379e-14
1.15463e-14
8.82627e-15
1.34892e-14
1.01585e-14
8.71525e-15
5.32907e-15
1.06026e-14
6.99441e-15
3.05311e-15
2.38698e-15
1.16573e-14
3.60822e-15
4.996e-16
2.72005e-15
7.38298e-15
2.72005e-15
1.66533e-15
1.11022e-16
1.0103e-14
5.32907e-15
1.27676e-15
4.32987e-15
0.524023
0.360085
0.309853
0.293162
0.285576
0.342814
0.401787
0.39192
0.439499
0.475058
0.509217
0.46976
0.417184
0.406018
0.38419
0.370212
0.417036
0.542177
0.626997
0.482423
0.427153
0.426539
0.494774
0.426323
0.471678
0.46236
0.416959
0.425805
0.467
0.488912
0.421685
0.39274
0.376148
0.346309
0.331441
0.398203
0.525397
0.616894
0.437319
0.378857
0.415688
0.458129
0.410404
0.403074
0.404201
0.380335
0.441504
0.453932
0.442672
0.401727
0.378747
0.33714
0.329325
0.422323
0.533463
0.571763
0.593553
0.280319
0.258361
0.304748
0.343289
0.244419
0.358569
0.415798
0.44748
0.46646
0.464166
0.424447
0.374485
0.347376
0.311016
0.339
0.443033
0.514982
0.548653
0.551797
0.295376
0.32022
0.350829
0.391003
0.430684
0.45612
0.465788
0.468003
0.448435
0.432141
0.39032
0.335464
0.320922
0.334402
0.436293
0.503604
0.526718
0.562318
0.545888
0.331616
0.358256
0.38067
0.404623
0.418149
0.422533
0.42298
0.404914
0.37523
0.369831
0.390638
0.371272
0.366227
0.36544
0.382991
0.395179
0.391267
0.497854
0.394713
0.303976
0.314404
0.325472
0.329985
0.318362
0.306579
0.291899
0.279826
0.277482
0.303733
0.365787
0.386616
0.400986
0.387386
0.335895
0.264559
0.219783
0.327844
0.165746
0.256314
0.258597
0.258423
0.24496
0.220714
0.196611
0.159648
0.132332
0.119166
0.112764
0.144747
0.2278
0.28857
0.327262
0.190195
0.109732
0.0765775
0.124662
0.0504734
0.210229
0.201304
0.192322
0.161078
0.139046
0.111326
0.0945393
0.0627019
0.0460866
0.038389
0.058399
0.0960632
0.0970366
0.123565
0.0676252
0.0276879
0.0197527
0.0317952
0.0140647
0.0980375
0.106886
0.103851
0.084127
0.070144
0.0458114
0.0431074
0.0283151
0.0196756
0.0135849
0.0231145
0.0316892
0.0269439
0.0302896
0.0203059
0.00919072
0.00743178
0.00842774
0.00441317
0.0351096
0.0360466
0.0304222
0.0386542
0.0262362
0.0180099
0.0175654
0.0103259
0.00802807
0.00456276
0.0074536
0.0100851
0.00924987
0.0101655
0.0065668
0.00404381
0.00316093
0.0024814
0.00173763
0.0146419
0.0120343
0.0106114
0.0124524
0.00905012
0.00613198
0.00607107
0.00306391
0.00262765
0.00172109
0.00288137
0.00310446
0.00442007
0.0047393
0.0038394
0.00234093
0.00161771
0.00123971
0.0010849
0.00391238
0.00300787
0.00317885
0.00300492
0.00286657
0.00182841
0.00160959
0.000893866
0.000788189
0.000555042
0.00111253
0.00155139
0.00277141
0.00298079
0.00255313
0.00163399
0.000982161
0.000741583
0.0008841
0.000629975
0.000510139
0.000642519
0.000943184
0.00079164
0.00051658
0.000333822
0.000260428
0.000292335
0.000189976
0.000348501
0.000721482
0.0017622
0.00212167
0.00169493
0.00121373
0.000616378
0.000365762
0.00076224
4.1454e-05
5.43555e-05
9.97629e-05
0.000214543
0.000146604
0.000154303
0.000132865
8.95748e-05
0.000132398
7.00519e-05
0.000149716
0.000587417
0.00114063
0.00128693
0.00104061
0.000852634
0.000349089
0.000171023
0.000665426
2.95033e-06
2.48382e-06
1.90878e-05
3.38953e-05
1.26488e-05
2.60549e-05
4.40797e-05
2.16141e-05
4.98434e-05
4.62458e-05
1.87106e-05
3.13848e-05
0.000105215
0.000343371
0.000433585
0.000480976
0.000169005
8.44972e-05
0.000586337
1.05303e-06
3.69198e-07
3.37351e-06
5.22192e-06
2.32771e-06
3.15041e-06
8.24166e-06
2.29071e-06
8.70544e-06
4.52237e-05
7.25604e-06
3.63357e-06
5.66563e-06
4.47604e-05
0.000103369
0.000251059
8.92913e-05
5.41696e-05
0.000527453
7.99129e-07
1.52978e-07
3.62076e-07
5.49493e-07
4.09908e-07
3.3841e-07
9.06995e-07
3.77932e-07
1.10548e-06
1.41934e-05
3.31809e-06
1.26991e-06
7.05277e-07
1.97634e-06
1.80441e-05
7.39321e-05
3.55007e-05
3.78413e-05
0.000486003
6.23544e-07
7.1056e-08
4.29527e-08
2.20644e-08
6.28451e-08
2.69281e-08
5.79975e-08
4.53387e-08
2.34873e-07
4.9282e-06
9.72957e-07
3.3062e-07
1.67123e-07
1.9413e-07
6.28004e-06
2.77317e-05
1.18753e-05
2.85389e-05
0.000454988
4.67452e-07
5.14194e-08
1.61632e-08
2.59515e-09
1.00868e-08
2.3297e-09
1.18349e-08
5.94221e-09
9.33991e-08
1.31606e-06
1.9974e-07
5.0454e-08
3.34129e-08
5.10978e-08
4.79573e-06
1.19932e-05
5.21646e-06
2.57063e-05
0.000429715
3.26902e-07
3.53047e-08
1.1515e-08
1.32676e-09
1.24185e-09
2.64874e-10
2.80931e-09
5.6285e-10
4.31807e-08
2.0001e-07
1.81011e-08
5.83279e-09
9.2099e-09
2.46525e-08
6.44191e-06
4.40579e-06
2.83376e-06
2.52818e-05
0.000406276
1.48149e-07
1.52277e-08
9.90909e-09
6.36322e-10
1.22059e-10
6.04212e-11
6.13147e-10
3.26894e-11
6.19149e-09
9.83827e-09
2.23348e-09
1.55842e-09
5.60794e-09
1.72917e-08
1.58849e-07
3.37103e-07
2.16848e-06
2.78517e-05
0.000387873
6.26878e-08
4.68403e-09
3.79994e-09
2.16941e-10
4.33192e-11
1.39895e-11
7.79166e-12
5.02831e-12
1.21641e-09
6.02575e-10
2.64306e-10
9.18607e-10
5.39286e-09
1.65172e-08
6.56082e-08
2.37441e-07
2.86305e-06
3.00669e-05
0.000373745
1.43001e-08
1.30583e-09
1.00311e-09
6.00634e-11
1.11509e-11
1.7995e-12
6.18339e-13
1.19171e-12
4.21886e-10
8.83794e-11
1.39777e-10
8.68197e-10
5.45021e-09
1.63042e-08
4.96944e-08
2.34681e-07
3.32784e-06
3.00981e-05
0.000348529
2.20061e-09
2.66783e-10
1.35584e-10
1.38632e-11
2.01283e-12
2.34368e-13
1.36335e-13
8.00471e-13
8.62551e-11
3.83555e-11
1.43408e-10
1.33778e-09
6.18993e-09
1.62693e-08
4.00312e-08
2.54072e-07
3.53791e-06
2.71971e-05
0.000322978
8.99958e-11
4.71025e-11
9.75703e-12
5.02709e-13
8.39884e-14
1.75415e-14
8.58202e-14
1.38461e-12
1.90612e-11
4.22277e-11
2.65711e-10
1.88924e-09
5.9157e-09
1.19755e-08
2.74887e-08
2.60299e-07
3.63166e-06
1.87238e-05
0.000296557
1.00998e-11
7.68563e-12
2.6717e-12
1.00864e-13
2.25375e-14
1.7486e-14
1.07525e-13
5.71987e-13
2.13836e-11
8.23331e-11
3.71837e-10
3.06357e-09
5.77399e-09
8.78575e-09
1.68352e-08
2.30005e-07
2.86199e-06
1.17743e-05
0.000269975
1.43968e-12
3.17857e-13
1.87295e-13
2.34257e-14
1.21014e-14
2.32592e-14
1.51101e-13
1.67566e-12
5.79757e-11
1.18806e-10
3.8187e-10
3.81267e-09
2.93579e-09
4.15301e-09
9.37561e-09
2.90227e-07
2.73921e-06
7.22036e-06
0.000239583
5.00155e-13
5.17364e-14
2.56462e-14
7.16094e-15
7.54952e-15
2.26485e-14
1.71863e-13
2.19541e-12
6.51397e-11
1.27195e-10
4.03407e-10
4.57812e-09
1.81158e-09
3.0643e-09
7.05421e-09
2.68992e-07
1.36938e-06
4.1993e-06
0.000215748
5.45675e-14
1.16573e-14
8.49321e-15
6.43929e-15
8.32667e-15
3.20299e-14
1.71807e-13
3.59013e-12
5.9326e-11
6.1298e-11
2.43748e-10
3.30199e-09
1.39023e-09
2.82824e-09
6.85841e-09
3.66679e-07
8.03617e-07
2.20483e-06
0.00019378
1.70974e-14
8.43769e-15
7.60503e-15
5.10703e-15
1.06026e-14
3.64153e-14
1.48992e-13
3.78053e-12
2.38404e-11
1.52002e-11
1.23455e-10
6.10757e-10
1.27178e-09
3.13351e-09
8.23755e-09
1.98661e-07
2.696e-07
9.78518e-07
0.000174519
9.65894e-15
7.04992e-15
5.55112e-15
4.71845e-15
1.11022e-14
4.08562e-14
1.39999e-13
5.19029e-13
6.35597e-12
3.52113e-12
2.36515e-11
7.41854e-11
1.5618e-09
5.41536e-09
1.00848e-08
5.02108e-08
1.17036e-07
4.37627e-07
0.0001566
8.16014e-15
5.32907e-15
3.94129e-15
6.10623e-15
9.21485e-15
3.40283e-14
6.05072e-14
2.59071e-13
1.38956e-12
1.30573e-12
7.02155e-12
3.4122e-11
2.85125e-09
9.72255e-09
1.36527e-08
2.55188e-08
9.19797e-08
2.77826e-07
0.000140578
7.21645e-15
3.94129e-15
4.66294e-15
5.66214e-15
9.38138e-15
2.12053e-14
2.59792e-14
6.44484e-14
2.02005e-13
5.79869e-13
3.05089e-12
3.71729e-11
5.10636e-09
1.33208e-08
1.66179e-08
2.16297e-08
1.14745e-07
2.90471e-07
0.000215534
6.43929e-15
2.9976e-15
5.10703e-15
3.71925e-15
7.10543e-15
1.06026e-14
1.34892e-14
1.71529e-14
2.55351e-14
5.32741e-13
2.84039e-12
5.56449e-11
6.87162e-09
1.54696e-08
1.88224e-08
2.34884e-08
1.85459e-07
2.94064e-07
0.000123696
7.82707e-15
3.71925e-15
6.4948e-15
2.77556e-15
7.16094e-15
8.88178e-15
1.04916e-14
5.93969e-15
3.83027e-15
6.71796e-13
3.24513e-12
9.78824e-11
9.24406e-09
1.7164e-08
2.05337e-08
2.51564e-08
2.03026e-07
2.93858e-07
0.000113542
5.88418e-15
6.82787e-15
8.38218e-15
3.4972e-15
1.04916e-14
8.99281e-15
1.06581e-14
3.10862e-15
2.72005e-15
9.15268e-13
3.98059e-12
1.36397e-10
1.07402e-08
1.79671e-08
2.11481e-08
2.5442e-08
1.94028e-07
2.91258e-07
9.53369e-05
2.72005e-15
1.16018e-14
8.77076e-15
3.66374e-15
1.18239e-14
1.26565e-14
1.36002e-14
2.83107e-15
3.60822e-15
1.12221e-12
5.2639e-12
2.18261e-10
1.32255e-08
1.88392e-08
2.12589e-08
2.55692e-08
1.64909e-07
2.74221e-07
8.62899e-05
7.10543e-15
1.37113e-14
7.82707e-15
4.32987e-15
1.44884e-14
1.4877e-14
1.58762e-14
2.60902e-15
3.05311e-15
1.33143e-12
7.11731e-12
3.32543e-10
1.58369e-08
2.0368e-08
2.11328e-08
2.3892e-08
1.3787e-07
2.63001e-07
4.46678e-05
8.16014e-15
1.29896e-14
4.32987e-15
2.83107e-15
1.44329e-14
1.57652e-14
1.63203e-14
0
5.05151e-15
1.47771e-12
1.09845e-11
4.3398e-10
1.69807e-08
2.09361e-08
2.15018e-08
2.37984e-08
1.33588e-07
2.81998e-07
2.21417e-05
1.10467e-14
1.08247e-14
0
7.10543e-15
1.59317e-14
1.59317e-14
1.84297e-14
0
3.4972e-15
1.62986e-12
2.19658e-11
6.53058e-10
1.80192e-08
2.13351e-08
2.16824e-08
2.37523e-08
1.26144e-07
3.94273e-07
0.000121411
1.32117e-14
9.38138e-15
0
1.01585e-14
1.86517e-14
1.89293e-14
1.95954e-14
0
3.21965e-15
1.84297e-12
4.60132e-12
1.27476e-10
1.82747e-08
2.1404e-08
2.1707e-08
2.35957e-08
1.30512e-07
2.94196e-07
9.81798e-05
)
;

boundaryField
{
    leftWall
    {
        type            zeroGradient;
    }
    rightWall
    {
        type            zeroGradient;
    }
    lowerWall
    {
        type            zeroGradient;
    }
    atmosphere
    {
        type            inletOutlet;
        inletValue      uniform 0;
        value           nonuniform List<scalar> 
46
(
0.00407991
0.00518131
0.00343133
0.00234532
0.00167283
0.00111024
0.000457991
7.76066e-05
1.62783e-05
3.86812e-06
6.95925e-07
5.5365e-08
3.82084e-09
2.71958e-10
9.12193e-12
1.15741e-13
1.15463e-14
1.07692e-14
1.43774e-14
1.39888e-14
1.32117e-14
1.88738e-14
1.2601e-14
1.0103e-14
5.32907e-15
1.27676e-15
4.32987e-15
1.32117e-14
9.38138e-15
0
1.01585e-14
1.86517e-14
1.89293e-14
1.95954e-14
0
3.21965e-15
1.84297e-12
4.60132e-12
1.27476e-10
1.82747e-08
2.1404e-08
2.1707e-08
2.35957e-08
1.30512e-07
2.94196e-07
9.81798e-05
)
;
    }
    defaultFaces
    {
        type            empty;
    }
}


// ************************************************************************* //
