/*--------------------------------*- C++ -*----------------------------------*\
| =========                 |                                                 |
| \\      /  F ield         | foam-extend: Open Source CFD                    |
|  \\    /   O peration     | Version:     4.1                                |
|   \\  /    A nd           | Web:         http://www.foam-extend.org         |
|    \\/     M anipulation  |                                                 |
\*---------------------------------------------------------------------------*/
FoamFile
{
    version     2.0;
    format      ascii;
    class       volScalarField;
    location    "0.95";
    object      C;
}
// * * * * * * * * * * * * * * * * * * * * * * * * * * * * * * * * * * * * * //

dimensions      [0 0 0 0 0 0 0];

internalField   nonuniform List<scalar> 
2268
(
0.284043
0.348407
0.388603
0.442041
0.508388
0.491207
0.412034
0.448354
0.574908
0.943245
0.997256
0.997905
0.999164
0.99832
0.999709
0.999799
0.999925
0.999911
0.998884
0.995801
0.994591
0.910011
0.315203
0.263087
0.333502
0.371406
0.553816
0.647082
0.653763
0.649923
0.759411
0.839595
0.916345
0.990227
0.987147
0.99671
0.983578
0.997836
0.9989
0.999768
0.999924
0.999734
0.999206
0.99938
0.987803
0.89534
0.222881
0.273546
0.305454
0.484272
0.548329
0.587119
0.611939
0.625527
0.568544
0.641078
0.961446
0.980009
0.976653
0.895645
0.981654
0.994789
0.999148
0.999805
0.999909
0.999876
0.999439
0.995407
0.976829
0.144553
0.0837273
0.057785
0.246381
0.50982
0.595968
0.661982
0.759746
0.823976
0.915906
0.94461
0.904417
0.790613
0.5676
0.930931
0.983332
0.994828
0.998573
0.999677
0.999639
0.999349
0.99447
0.98462
0.0498973
-0.0279827
0.116354
0.459054
0.550574
0.589534
0.641113
0.813331
0.877793
0.904367
0.894028
0.714392
0.553928
0.389747
0.819999
0.941586
0.970446
0.99057
0.996556
0.997831
0.997513
0.987554
0.983077
0.0204101
-0.0198686
0.0909223
0.315042
0.415461
0.282166
0.303979
0.503587
0.663008
0.840981
0.844577
0.573328
0.497392
0.344283
0.707476
0.85175
0.871219
0.941449
0.958831
0.984865
0.985479
0.96742
0.971769
0.00933083
-0.0245796
0.0673001
0.195117
0.276415
0.0605553
0.231367
0.295495
0.392876
0.530474
0.659144
0.347472
0.486061
0.357542
0.638339
0.720417
0.576277
0.738339
0.797406
0.898056
0.936088
0.927735
0.912036
-0.00630464
-0.0448913
0.0348262
0.0886129
0.155342
-0.151407
0.157946
0.129523
0.141803
0.0690383
0.351727
0.185689
0.334775
0.350825
0.448048
0.442015
0.284502
0.44304
0.523833
0.570335
0.729701
0.801194
0.674294
0.15516
0.127239
0.162942
0.229091
0.265364
0.281724
0.286299
0.28534
0.308912
0.308029
0.3051
0.280994
0.264928
0.259746
0.255129
0.268029
0.270933
0.319325
0.297941
0.163075
0.111868
0.140952
0.176248
0.188685
0.155318
0.112207
0.174616
0.231434
0.228838
0.187718
0.169981
0.0466892
-0.00600394
0.0542084
0.15653
0.161454
0.274256
0.272558
0.170724
0.0998227
0.0976679
0.0971577
0.0488364
-0.0865919
-0.122202
-0.0882341
-0.0143521
0.00753083
-0.119095
-0.133265
-0.116578
-0.242275
-0.0870052
0.0198989
0.0462783
0.232342
0.261518
0.182806
0.0936641
0.0841289
0.0723237
0.000737609
-0.201115
-0.288576
-0.318827
-0.316198
-0.319021
-0.32615
-0.32035
-0.294548
-0.229652
-0.156852
-0.108108
-0.0220235
0.160287
0.248045
0.189305
0.0854709
0.0651176
0.0362747
-0.0810042
-0.228479
-0.300788
-0.350278
-0.390559
-0.414603
-0.394355
-0.271542
-0.344654
-0.231325
-0.174413
-0.117956
-0.0473963
0.0981723
0.23736
0.195517
0.0700382
0.0170671
-0.0811448
-0.186033
-0.329484
-0.358401
-0.337136
-0.329582
-0.333094
-0.38549
-0.108241
-0.202547
-0.186502
-0.183085
-0.15487
-0.0832183
0.0695742
0.238135
0.189391
0.0310844
-0.094125
-0.25204
-0.325677
-0.450282
-0.430516
-0.501439
-0.30454
-0.218028
-0.260047
-0.102898
-0.123076
-0.13952
-0.162089
-0.173188
-0.129772
0.0286586
0.227064
0.174335
-0.0691176
-0.295541
-0.418726
-0.433728
-0.434254
-0.313204
-0.391719
-0.166917
-0.0996091
-0.193813
-0.118788
-0.124767
-0.143509
-0.18372
-0.191452
-0.159523
-0.039534
0.214423
-0.0968968
-0.30279
-0.248423
-0.256432
-0.143546
-0.0329988
0.0902305
0.0455641
-0.0866837
-0.105084
0.0302319
0.124854
0.192937
0.238747
0.214476
0.15427
0.112959
0.164817
0.161115
0.168293
0.325282
0.289291
0.029835
-0.125323
-0.480239
-0.572826
-0.40517
-0.264959
-0.222109
-0.122195
0.0698607
-0.123749
-0.14863
0.0708505
0.206999
0.197065
0.0906619
0.0500504
0.0449019
0.0474395
0.0485754
0.0891186
0.11932
0.129303
0.11098
0.0243017
-0.155512
-0.540961
-0.623715
-0.494778
-0.348708
-0.288401
-0.412846
-0.186948
-0.166531
-0.0993217
0.0329595
0.167178
0.0986485
0.0496805
0.0503799
0.0973232
0.128246
0.132953
0.122487
0.103338
0.0728751
0.0407744
0.00768853
-0.265593
-0.57126
-0.576243
-0.521291
-0.409431
-0.286918
-0.2675
-0.246791
-0.205616
-0.0376509
0.095474
0.154607
0.0679849
0.0322538
0.0340217
0.0735491
0.137476
0.169395
0.179486
0.162314
0.105417
0.0509749
-0.0306644
-0.439407
-0.56415
-0.547903
-0.549175
-0.483051
-0.375314
-0.408716
-0.383487
-0.15784
0.00143158
0.06832
0.0548286
-0.0406245
-0.0751781
-0.0763029
0.0108325
0.0545756
0.0883802
0.107368
0.0877653
-0.0690605
-0.255593
-0.45016
-0.546693
-0.574042
-0.57947
-0.590203
-0.601935
-0.514599
-0.588757
-0.518213
-0.222408
-0.0931287
-0.0527144
-0.116299
-0.251124
-0.302503
-0.246637
-0.154264
-0.167016
-0.249364
-0.293106
-0.311103
-0.412171
-0.487971
-0.505324
-0.628169
-0.643197
-0.696321
-0.661078
-0.740018
-0.667999
-0.675561
-0.503442
-0.364239
-0.334145
-0.313354
-0.332033
-0.436446
-0.450494
-0.384647
-0.356681
-0.442129
-0.504572
-0.513945
-0.51071
-0.52068
-0.516696
-0.470595
-0.684621
-0.748006
-0.849376
-0.814039
-0.850694
-0.778295
-0.748225
-0.581806
-0.487432
-0.454022
-0.46793
-0.539004
-0.578587
-0.581568
-0.575681
-0.563089
-0.588093
-0.615387
-0.619531
-0.609719
-0.582344
-0.543218
-0.516792
-0.745506
-0.795714
-0.884267
-0.915919
-0.910342
-0.856569
-0.824594
-0.725705
-0.584707
-0.521196
-0.574407
-0.672954
-0.692675
-0.670636
-0.660906
-0.650558
-0.644583
-0.646919
-0.645191
-0.606158
-0.565004
-0.546295
-0.544501
-0.845599
-0.890657
-0.92588
-0.950256
-0.937977
-0.91425
-0.908465
-0.886064
-0.755932
-0.604535
-0.586462
-0.684166
-0.734372
-0.699018
-0.696442
-0.695522
-0.687264
-0.676328
-0.662862
-0.641897
-0.638609
-0.663397
-0.717847
-0.931258
-0.947806
-0.95324
-0.974501
-0.96474
-0.956464
-0.964736
-0.955009
-0.905252
-0.74899
-0.649224
-0.708767
-0.751871
-0.738127
-0.745115
-0.746168
-0.724619
-0.711249
-0.697378
-0.679155
-0.676828
-0.722854
-0.831198
-0.964008
-0.968512
-0.977744
-0.982866
-0.976826
-0.974332
-0.970678
-0.966109
-0.911258
-0.818666
-0.724033
-0.737285
-0.784814
-0.772907
-0.755806
-0.7448
-0.726324
-0.715171
-0.707471
-0.706205
-0.74096
-0.860696
-0.938791
-0.976028
-0.98068
-0.980981
-0.98031
-0.973546
-0.9694
-0.961011
-0.958352
-0.896763
-0.829149
-0.793086
-0.794702
-0.829231
-0.791732
-0.771524
-0.742339
-0.7312
-0.728396
-0.73583
-0.776251
-0.876094
-0.957445
-0.984147
-0.97831
-0.973461
-0.968728
-0.96054
-0.951153
-0.947876
-0.934136
-0.923012
-0.877258
-0.85229
-0.839363
-0.831058
-0.816509
-0.779721
-0.759344
-0.746773
-0.740997
-0.76049
-0.821141
-0.911563
-0.973305
-0.991753
-0.996498
-0.981194
-0.970712
-0.956965
-0.939972
-0.923875
-0.918215
-0.904718
-0.889833
-0.866773
-0.851318
-0.833972
-0.815589
-0.793326
-0.773838
-0.76566
-0.762975
-0.779768
-0.847974
-0.948326
-0.984161
-0.995962
-0.998195
-0.999184
-0.978329
-0.957217
-0.926951
-0.906843
-0.893384
-0.884271
-0.87439
-0.862713
-0.851254
-0.841763
-0.826363
-0.809869
-0.792262
-0.784125
-0.786552
-0.815109
-0.871195
-0.954587
-0.990847
-0.997092
-0.998489
-0.999086
-0.999579
-0.976415
-0.946987
-0.92263
-0.907757
-0.896552
-0.883758
-0.869373
-0.858355
-0.848599
-0.8389
-0.825662
-0.815562
-0.810287
-0.824723
-0.857772
-0.926433
-0.975126
-0.99416
-0.997231
-0.998377
-0.998717
-0.99916
-0.999685
-0.976347
-0.946706
-0.924875
-0.911151
-0.895823
-0.880802
-0.870858
-0.864713
-0.860105
-0.856492
-0.857682
-0.86353
-0.893958
-0.912283
-0.960909
-0.9899
-0.99659
-0.997644
-0.998575
-0.998859
-0.999031
-0.999155
-0.999744
-0.976285
-0.947915
-0.928585
-0.914659
-0.899457
-0.88896
-0.887301
-0.895141
-0.894533
-0.917322
-0.931059
-0.946101
-0.968642
-0.977311
-0.993792
-0.997289
-0.99806
-0.998429
-0.999459
-0.999706
-0.999783
-0.999608
-0.999868
-0.978189
-0.952378
-0.935336
-0.923146
-0.911552
-0.905106
-0.91039
-0.938258
-0.950548
-0.971613
-0.975693
-0.982572
-0.989211
-0.993301
-0.99719
-0.998433
-0.999173
-0.99937
-0.999798
-0.999914
-0.999948
-0.999947
-0.999971
-0.978603
-0.957486
-0.944145
-0.937789
-0.93154
-0.929739
-0.948623
-0.972736
-0.983318
-0.989656
-0.989962
-0.992288
-0.994179
-0.996516
-0.998339
-0.999481
-0.999732
-0.99975
-0.99988
-0.999953
-0.999977
-0.999989
-0.999991
-0.979676
-0.962165
-0.951642
-0.949335
-0.945572
-0.947531
-0.961569
-0.980585
-0.990105
-0.993716
-0.99411
-0.995191
-0.996164
-0.998373
-0.999181
-0.999754
-0.999876
-0.999904
-0.999927
-0.999971
-0.999986
-0.999996
-0.999997
-0.98118
-0.966419
-0.959444
-0.95887
-0.954762
-0.955855
-0.967563
-0.978972
-0.990331
-0.995025
-0.996238
-0.997592
-0.998496
-0.99945
-0.999662
-0.999872
-0.999941
-0.999958
-0.999959
-0.999982
-0.999992
-0.999998
-0.999999
-0.98304
-0.971304
-0.967637
-0.966498
-0.961761
-0.961995
-0.970429
-0.982601
-0.99244
-0.996273
-0.99763
-0.998748
-0.999085
-0.999557
-0.999854
-0.999948
-0.999978
-0.999987
-0.999983
-0.99999
-0.999996
-0.999999
-1
-0.985301
-0.976273
-0.973461
-0.971335
-0.966847
-0.968834
-0.975158
-0.988868
-0.995591
-0.997656
-0.998112
-0.99835
-0.99851
-0.999577
-0.999933
-0.999978
-0.999991
-0.999996
-0.999996
-0.999997
-0.999998
-1
-1
-0.988091
-0.980778
-0.978655
-0.976443
-0.971223
-0.971821
-0.976384
-0.988144
-0.994245
-0.996873
-0.997557
-0.996509
-0.99832
-0.999619
-0.999966
-0.999989
-0.999996
-0.999998
-0.999999
-0.999999
-0.999999
-1
-1
-0.990273
-0.984619
-0.983825
-0.981516
-0.97425
-0.972949
-0.977428
-0.988594
-0.992577
-0.99401
-0.994824
-0.99776
-0.999461
-0.999912
-0.999983
-0.999995
-0.999998
-0.999999
-1
-1
-1
-1
-1
-0.992124
-0.987807
-0.987744
-0.983999
-0.976132
-0.974293
-0.97974
-0.990347
-0.993649
-0.994478
-0.995294
-0.999593
-0.999907
-0.999975
-0.999993
-0.999998
-1
-1
-1
-1
-1
-1
-1
-0.993511
-0.990887
-0.990632
-0.986461
-0.977793
-0.975791
-0.982998
-0.995096
-0.997465
-0.998739
-0.999792
-0.999888
-0.999946
-0.999987
-0.999997
-0.999999
-1
-1
-1
-1
-1
-1
-1
-0.994304
-0.992857
-0.991999
-0.987697
-0.979258
-0.977383
-0.987352
-0.998186
-0.999068
-0.999519
-0.999762
-0.999911
-0.999966
-0.999991
-0.999998
-1
-1
-1
-1
-1
-1
-1
-1
-0.994594
-0.99361
-0.992186
-0.987739
-0.980301
-0.979223
-0.990807
-0.99868
-0.999243
-0.999581
-0.999798
-0.999925
-0.999973
-0.999991
-0.999998
-1
-1
-1
-1
-1
-1
-1
-1
-0.994598
-0.993614
-0.991891
-0.987492
-0.981235
-0.980781
-0.992221
-0.998494
-0.99903
-0.999391
-0.99975
-0.999925
-0.999974
-0.999992
-0.999997
-1
-1
-1
-1
-1
-1
-1
-1
-0.994441
-0.993146
-0.990743
-0.986857
-0.982113
-0.981632
-0.991931
-0.997838
-0.998221
-0.999237
-0.999725
-0.999924
-0.999982
-0.999996
-1
-1
-1
-1
-1
-1
-1
-1
-1
-0.993879
-0.991352
-0.988619
-0.986097
-0.983009
-0.982316
-0.990276
-0.995975
-0.997103
-0.998996
-0.999713
-0.999934
-0.999987
-0.999996
-1
-1
-1
-1
-1
-1
-1
-1
-1
-0.992771
-0.988709
-0.986877
-0.985709
-0.984018
-0.983444
-0.987936
-0.99231
-0.995423
-0.998609
-0.999646
-0.999944
-0.99999
-0.999998
-1
-1
-1
-1
-1
-1
-1
-1
-1
-0.991986
-0.987254
-0.98611
-0.985679
-0.985271
-0.98517
-0.987951
-0.99186
-0.997612
-0.999474
-0.999849
-0.999952
-0.999988
-0.999998
-1
-1
-1
-1
-1
-1
-1
-1
-1
-0.991485
-0.986663
-0.985967
-0.985873
-0.98709
-0.98754
-0.989101
-0.992322
-0.996891
-0.998881
-0.999635
-0.999907
-0.99998
-0.999998
-1
-1
-1
-1
-1
-1
-1
-1
-1
-0.991185
-0.986488
-0.986097
-0.986606
-0.990286
-0.990617
-0.992746
-0.995694
-0.998781
-0.999662
-0.999921
-0.999985
-0.999998
-1
-1
-1
-1
-1
-1
-1
-1
-1
-1
-0.991148
-0.986558
-0.986733
-0.988278
-0.994354
-0.993917
-0.996481
-0.997828
-0.999085
-0.999668
-0.9999
-0.999982
-0.999997
-1
-1
-1
-1
-1
-1
-1
-1
-1
-1
-0.991224
-0.987005
-0.988655
-0.991112
-0.996363
-0.996084
-0.997803
-0.998905
-0.999644
-0.999924
-0.999987
-0.999998
-1
-1
-1
-1
-1
-1
-1
-1
-1
-1
-1
-0.991423
-0.987853
-0.991407
-0.994066
-0.996547
-0.996844
-0.998017
-0.99909
-0.999705
-0.999925
-0.999988
-0.999999
-1
-1
-1
-1
-1
-1
-1
-1
-1
-1
-1
-0.99184
-0.989637
-0.993137
-0.995309
-0.996654
-0.99778
-0.999084
-0.999845
-0.999967
-0.999992
-0.999999
-1
-1
-1
-1
-1
-1
-1
-1
-1
-1
-1
-1
0.0206302
0.0302537
0.0372622
0.0412247
0.0169587
0.0173473
0.0147637
0.0034406
-0.0122827
-0.0277127
-0.0436634
-0.0605329
-0.124203
-0.229466
-0.305269
-0.36113
-0.493987
-0.503957
-0.474114
-0.446179
-0.454234
-0.431844
-0.402817
-0.376848
-0.44967
-0.435286
-0.421757
-0.409691
-0.503194
-0.497837
-0.494395
-0.491375
-0.553804
-0.560859
-0.567677
-0.572302
-0.763642
-0.778559
-0.793407
-0.801168
-0.897345
-0.911891
-0.924781
-0.929478
-0.962789
-0.971255
-0.975109
-0.974926
-0.991978
-0.994393
-0.994396
-0.993444
-0.998181
-0.998893
-0.998993
-0.998893
-0.999712
-0.999833
-0.999882
-0.999904
-0.999894
-0.999948
-0.999974
-0.999987
-0.999916
-0.999964
-0.999988
-0.999995
-0.999913
-0.999949
-0.999973
-0.999994
-0.999943
-0.999964
-0.999951
-0.999996
-0.999989
-0.999994
-0.999994
-0.999997
-0.999994
-0.999997
-0.999997
-0.999998
-0.999998
-0.999999
-0.999999
-1
-0.999999
-1
-1
-1
-1
-1
-1
-1
-1
-1
-1
-1
-1
-1
-1
-1
-1
-1
-1
-1
-1
-1
-1
-1
-1
-1
-1
-1
-1
-1
-1
-1
-1
-1
-1
-1
-1
-1
-1
-1
-1
-1
-1
-1
-1
-1
-1
-1
-1
-1
-1
-1
-1
-1
-1
-1
-1
-1
-1
-1
-1
-1
-1
-1
-1
-1
-1
-1
-1
-1
-1
-1
-1
-1
-1
-1
-1
-1
-1
-1
0.0480453
-0.27983
-0.380294
-0.413676
-0.428849
-0.314373
-0.196426
-0.21616
-0.121002
-0.0498835
0.0184344
-0.0604795
-0.165632
-0.187964
-0.231619
-0.259577
-0.165928
0.0843544
0.253995
-0.0351539
-0.145695
-0.146922
-0.0104517
-0.147354
-0.0566448
-0.0752805
-0.166082
-0.14839
-0.0660009
-0.0221766
-0.156629
-0.21452
-0.247704
-0.307382
-0.337117
-0.203595
0.050795
0.233787
-0.125362
-0.242286
-0.168625
-0.083742
-0.179192
-0.193852
-0.191598
-0.23933
-0.116991
-0.0921367
-0.114655
-0.196546
-0.242505
-0.32572
-0.34135
-0.155354
0.0669255
0.143527
0.187106
-0.439362
-0.483279
-0.390505
-0.313423
-0.511162
-0.282861
-0.168404
-0.105041
-0.0670793
-0.0716687
-0.151106
-0.25103
-0.305249
-0.377968
-0.322
-0.113934
0.0299641
0.0973067
0.103594
-0.409249
-0.35956
-0.298341
-0.217994
-0.138633
-0.0877601
-0.068423
-0.0639935
-0.10313
-0.135718
-0.21936
-0.329073
-0.358156
-0.331197
-0.127414
0.00720844
0.0534362
0.124636
0.091776
-0.336769
-0.283489
-0.23866
-0.190753
-0.163702
-0.154933
-0.154041
-0.190171
-0.24954
-0.260339
-0.218724
-0.257456
-0.267545
-0.269119
-0.234017
-0.209642
-0.217467
-0.00429118
-0.210574
-0.392048
-0.371193
-0.349056
-0.340029
-0.363275
-0.386842
-0.416202
-0.440349
-0.445035
-0.392533
-0.268426
-0.226768
-0.198027
-0.225228
-0.328211
-0.470882
-0.560434
-0.344313
-0.668507
-0.487372
-0.482806
-0.483153
-0.51008
-0.558572
-0.606778
-0.680705
-0.735337
-0.761669
-0.774472
-0.710505
-0.5444
-0.42286
-0.345476
-0.61961
-0.780536
-0.846845
-0.750676
-0.899053
-0.579542
-0.597392
-0.615357
-0.677844
-0.721909
-0.777348
-0.810921
-0.874596
-0.907827
-0.923222
-0.883202
-0.807874
-0.805927
-0.75287
-0.86475
-0.944624
-0.960495
-0.93641
-0.971871
-0.803925
-0.786229
-0.792297
-0.831746
-0.859712
-0.908377
-0.913785
-0.94337
-0.960649
-0.97283
-0.953771
-0.936622
-0.946112
-0.939421
-0.959388
-0.981619
-0.985136
-0.983145
-0.991174
-0.929781
-0.927907
-0.939156
-0.922692
-0.947528
-0.96398
-0.964869
-0.979348
-0.983944
-0.990874
-0.985093
-0.97983
-0.9815
-0.979669
-0.986866
-0.991912
-0.993678
-0.995037
-0.996525
-0.970716
-0.975931
-0.978777
-0.975095
-0.9819
-0.987736
-0.987858
-0.993872
-0.994745
-0.996558
-0.994237
-0.993791
-0.99116
-0.990521
-0.992321
-0.995318
-0.996765
-0.997521
-0.99783
-0.992175
-0.993984
-0.993642
-0.99399
-0.994267
-0.996343
-0.996781
-0.998212
-0.998424
-0.99889
-0.997775
-0.996897
-0.994457
-0.994038
-0.994894
-0.996732
-0.998036
-0.998517
-0.998232
-0.99874
-0.99898
-0.998715
-0.998114
-0.998417
-0.998967
-0.999332
-0.999479
-0.999415
-0.99962
-0.999303
-0.998557
-0.996476
-0.995757
-0.99661
-0.997573
-0.998767
-0.999268
-0.998476
-0.999917
-0.999891
-0.9998
-0.999571
-0.999707
-0.999691
-0.999734
-0.999821
-0.999735
-0.99986
-0.999701
-0.998825
-0.997719
-0.997426
-0.997919
-0.998295
-0.999302
-0.999658
-0.998669
-0.999994
-0.999995
-0.999962
-0.999932
-0.999975
-0.999948
-0.999912
-0.999957
-0.9999
-0.999908
-0.999963
-0.999937
-0.99979
-0.999313
-0.999133
-0.999038
-0.999662
-0.999831
-0.998827
-0.999998
-0.999999
-0.999993
-0.99999
-0.999995
-0.999994
-0.999984
-0.999995
-0.999983
-0.99991
-0.999985
-0.999993
-0.999989
-0.99991
-0.999793
-0.999498
-0.999821
-0.999892
-0.998945
-0.999998
-1
-0.999999
-0.999999
-0.999999
-0.999999
-0.999998
-0.999999
-0.999998
-0.999972
-0.999993
-0.999997
-0.999999
-0.999996
-0.999964
-0.999852
-0.999929
-0.999924
-0.999028
-0.999999
-1
-1
-1
-1
-1
-1
-1
-1
-0.99999
-0.999998
-0.999999
-1
-1
-0.999987
-0.999945
-0.999976
-0.999943
-0.99909
-0.999999
-1
-1
-1
-1
-1
-1
-1
-1
-0.999997
-1
-1
-1
-1
-0.99999
-0.999976
-0.99999
-0.999949
-0.999141
-0.999999
-1
-1
-1
-1
-1
-1
-1
-1
-1
-1
-1
-1
-1
-0.999987
-0.999991
-0.999994
-0.999949
-0.999187
-1
-1
-1
-1
-1
-1
-1
-1
-1
-1
-1
-1
-1
-1
-1
-0.999999
-0.999996
-0.999944
-0.999224
-1
-1
-1
-1
-1
-1
-1
-1
-1
-1
-1
-1
-1
-1
-1
-1
-0.999994
-0.99994
-0.999253
-1
-1
-1
-1
-1
-1
-1
-1
-1
-1
-1
-1
-1
-1
-1
-1
-0.999993
-0.99994
-0.999303
-1
-1
-1
-1
-1
-1
-1
-1
-1
-1
-1
-1
-1
-1
-1
-0.999999
-0.999993
-0.999946
-0.999354
-1
-1
-1
-1
-1
-1
-1
-1
-1
-1
-1
-1
-1
-1
-1
-0.999999
-0.999993
-0.999963
-0.999407
-1
-1
-1
-1
-1
-1
-1
-1
-1
-1
-1
-1
-1
-1
-1
-1
-0.999994
-0.999976
-0.99946
-1
-1
-1
-1
-1
-1
-1
-1
-1
-1
-1
-1
-1
-1
-1
-0.999999
-0.999995
-0.999986
-0.999521
-1
-1
-1
-1
-1
-1
-1
-1
-1
-1
-1
-1
-1
-1
-1
-0.999999
-0.999997
-0.999992
-0.999569
-1
-1
-1
-1
-1
-1
-1
-1
-1
-1
-1
-1
-1
-1
-1
-0.999999
-0.999998
-0.999996
-0.999612
-1
-1
-1
-1
-1
-1
-1
-1
-1
-1
-1
-1
-1
-1
-1
-1
-0.999999
-0.999998
-0.999651
-1
-1
-1
-1
-1
-1
-1
-1
-1
-1
-1
-1
-1
-1
-1
-1
-1
-0.999999
-0.999687
-1
-1
-1
-1
-1
-1
-1
-1
-1
-1
-1
-1
-1
-1
-1
-1
-1
-0.999999
-0.999719
-1
-1
-1
-1
-1
-1
-1
-1
-1
-1
-1
-1
-1
-1
-1
-1
-1
-0.999999
-0.999569
-1
-1
-1
-1
-1
-1
-1
-1
-1
-1
-1
-1
-1
-1
-1
-1
-1
-0.999999
-0.999753
-1
-1
-1
-1
-1
-1
-1
-1
-1
-1
-1
-1
-1
-1
-1
-1
-1
-0.999999
-0.999773
-1
-1
-1
-1
-1
-1
-1
-1
-1
-1
-1
-1
-1
-1
-1
-1
-1
-0.999999
-0.999809
-1
-1
-1
-1
-1
-1
-1
-1
-1
-1
-1
-1
-1
-1
-1
-1
-1
-0.999999
-0.999827
-1
-1
-1
-1
-1
-1
-1
-1
-1
-1
-1
-1
-1
-1
-1
-1
-1
-0.999999
-0.999911
-1
-1
-1
-1
-1
-1
-1
-1
-1
-1
-1
-1
-1
-1
-1
-1
-1
-0.999999
-0.999956
-1
-1
-1
-1
-1
-1
-1
-1
-1
-1
-1
-1
-1
-1
-1
-1
-1
-0.999999
-0.999757
-1
-1
-1
-1
-1
-1
-1
-1
-1
-1
-1
-1
-1
-1
-1
-1
-1
-0.999999
-0.999804
)
;

boundaryField
{
    leftWall
    {
        type            zeroGradient;
    }
    rightWall
    {
        type            zeroGradient;
    }
    lowerWall
    {
        type            zeroGradient;
    }
    atmosphere
    {
        type            zeroGradient;
    }
    defaultFaces
    {
        type            empty;
    }
}


// ************************************************************************* //
