/*--------------------------------*- C++ -*----------------------------------*\
| =========                 |                                                 |
| \\      /  F ield         | foam-extend: Open Source CFD                    |
|  \\    /   O peration     | Version:     4.1                                |
|   \\  /    A nd           | Web:         http://www.foam-extend.org         |
|    \\/     M anipulation  |                                                 |
\*---------------------------------------------------------------------------*/
FoamFile
{
    version     2.0;
    format      ascii;
    class       volScalarField;
    location    "0.95";
    object      C_0;
}
// * * * * * * * * * * * * * * * * * * * * * * * * * * * * * * * * * * * * * //

dimensions      [0 0 0 0 0 0 0];

internalField   nonuniform List<scalar> 
2268
(
0.283852
0.347817
0.387322
0.439123
0.506285
0.490052
0.411811
0.446965
0.572168
0.942375
0.997243
0.997883
0.999173
0.998378
0.999709
0.9998
0.999925
0.999911
0.998885
0.995803
0.994586
0.910598
0.314694
0.26248
0.332403
0.368504
0.548538
0.647205
0.654628
0.650604
0.758052
0.836959
0.915697
0.990219
0.987156
0.996752
0.984229
0.997863
0.998908
0.999769
0.999924
0.999735
0.999207
0.99938
0.987866
0.89517
0.22127
0.270447
0.298529
0.479269
0.546931
0.585847
0.610502
0.624589
0.567961
0.635587
0.960656
0.980556
0.977292
0.899405
0.98184
0.994819
0.999159
0.999805
0.999909
0.999876
0.999438
0.995405
0.976842
0.141832
0.0786023
0.0510855
0.238246
0.507009
0.593215
0.659449
0.756858
0.82178
0.915232
0.94448
0.90781
0.795808
0.574518
0.931535
0.983385
0.994924
0.998577
0.999677
0.99964
0.999349
0.994462
0.984618
0.0476715
-0.030548
0.107858
0.453943
0.549111
0.590345
0.643084
0.813121
0.877725
0.904767
0.895802
0.720207
0.557933
0.392496
0.821109
0.941673
0.97103
0.990623
0.996552
0.997832
0.997511
0.98754
0.983076
0.0196106
-0.0207885
0.0847763
0.307684
0.415487
0.285825
0.304808
0.505421
0.662819
0.841725
0.847366
0.57809
0.499302
0.343888
0.707745
0.851769
0.873621
0.941802
0.958825
0.984887
0.985443
0.967329
0.971767
0.00882812
-0.0254352
0.0634997
0.188552
0.279367
0.0635915
0.232392
0.299781
0.394356
0.529876
0.663376
0.350399
0.489119
0.357406
0.639063
0.721187
0.582115
0.739238
0.797206
0.898135
0.935906
0.927553
0.912404
-0.00753992
-0.0474628
0.0307816
0.0813605
0.159615
-0.155913
0.160421
0.134949
0.144423
0.069251
0.355394
0.185427
0.337373
0.352361
0.450439
0.444864
0.28858
0.44408
0.523141
0.570424
0.729584
0.800301
0.675127
0.155689
0.126868
0.15957
0.225719
0.263624
0.281131
0.286326
0.285732
0.309005
0.308294
0.305733
0.282202
0.266088
0.260765
0.255977
0.268319
0.271323
0.319667
0.298224
0.164247
0.110936
0.138323
0.174716
0.188433
0.157832
0.114879
0.175303
0.232062
0.229878
0.189302
0.171722
0.0490982
-0.00284912
0.055292
0.157006
0.162226
0.27447
0.272828
0.172287
0.0995704
0.0966742
0.0976561
0.0525915
-0.0825504
-0.119099
-0.0877073
-0.0138603
0.00849797
-0.116997
-0.130694
-0.114795
-0.242109
-0.0859735
0.0202216
0.0477076
0.232706
0.261898
0.184607
0.0935882
0.0840051
0.0741588
0.00611392
-0.195681
-0.28546
-0.317307
-0.316006
-0.31894
-0.326146
-0.32123
-0.293877
-0.229607
-0.155819
-0.107715
-0.0206547
0.161317
0.248577
0.191214
0.0854233
0.0648456
0.0374415
-0.0766153
-0.224635
-0.298158
-0.348945
-0.390577
-0.415349
-0.396141
-0.277434
-0.346928
-0.230978
-0.173373
-0.116917
-0.0458742
0.0998354
0.237973
0.197055
0.069807
0.0160524
-0.0805822
-0.182818
-0.326648
-0.356884
-0.334094
-0.330102
-0.334729
-0.386066
-0.109143
-0.208073
-0.189238
-0.183026
-0.153718
-0.0809865
0.0715218
0.23873
0.191177
0.0303132
-0.0964956
-0.253222
-0.325564
-0.45053
-0.431272
-0.503326
-0.308691
-0.221633
-0.260372
-0.102032
-0.123416
-0.139879
-0.162557
-0.172951
-0.128398
0.0308165
0.227853
0.175593
-0.0710274
-0.29755
-0.419005
-0.434523
-0.436799
-0.316071
-0.397483
-0.169722
-0.102116
-0.19629
-0.118829
-0.12422
-0.143159
-0.183589
-0.191065
-0.158548
-0.0372517
0.215357
-0.0987738
-0.313346
-0.263778
-0.265805
-0.148113
-0.0372418
0.0925918
0.0505134
-0.0854806
-0.106439
0.0273173
0.122893
0.192441
0.243206
0.217634
0.156536
0.113941
0.165448
0.160803
0.168534
0.32638
0.289072
0.0300845
-0.126029
-0.483875
-0.579915
-0.409115
-0.266051
-0.221706
-0.121815
0.0720873
-0.122714
-0.152099
0.0645189
0.20759
0.200287
0.0933885
0.0503917
0.0444271
0.0469217
0.0474731
0.0876046
0.118876
0.129105
0.112142
0.0248966
-0.156763
-0.543035
-0.624088
-0.495255
-0.349039
-0.288216
-0.413829
-0.187804
-0.167035
-0.101298
0.0272394
0.168836
0.10249
0.0498609
0.0490519
0.0950922
0.12775
0.133053
0.123525
0.104913
0.0747648
0.0427696
0.00887675
-0.270254
-0.571646
-0.574829
-0.522114
-0.41141
-0.287192
-0.268227
-0.248318
-0.208853
-0.0431779
0.092606
0.156464
0.0715807
0.0328041
0.0333774
0.0707592
0.135507
0.169286
0.179839
0.164257
0.108686
0.0553126
-0.0259948
-0.44367
-0.564024
-0.547479
-0.550166
-0.487077
-0.37611
-0.410664
-0.388855
-0.164012
-0.0027671
0.0683117
0.0592207
-0.0367577
-0.0738472
-0.0764209
0.0101705
0.0535661
0.0882267
0.106678
0.0892825
-0.0646317
-0.248104
-0.448415
-0.550688
-0.574524
-0.581112
-0.591858
-0.60699
-0.517143
-0.591038
-0.522797
-0.229099
-0.096547
-0.0538404
-0.111503
-0.247183
-0.300948
-0.248208
-0.15361
-0.16422
-0.246025
-0.293504
-0.313001
-0.411651
-0.488703
-0.507706
-0.63125
-0.646071
-0.701392
-0.66422
-0.744859
-0.67256
-0.679252
-0.509366
-0.369424
-0.33743
-0.313624
-0.329332
-0.43488
-0.451113
-0.385448
-0.356135
-0.437794
-0.504822
-0.516637
-0.513916
-0.523462
-0.5199
-0.473144
-0.687009
-0.751336
-0.853176
-0.818491
-0.854476
-0.783423
-0.75381
-0.588397
-0.491094
-0.454748
-0.466345
-0.5372
-0.578057
-0.581364
-0.576132
-0.56384
-0.586835
-0.616419
-0.621407
-0.612801
-0.586426
-0.546068
-0.518717
-0.7477
-0.798616
-0.887266
-0.918384
-0.913096
-0.860723
-0.8293
-0.733113
-0.589576
-0.522058
-0.570887
-0.672462
-0.69254
-0.671133
-0.66196
-0.65238
-0.645616
-0.647947
-0.647707
-0.610436
-0.567388
-0.546422
-0.543741
-0.847951
-0.892997
-0.927883
-0.95155
-0.939958
-0.917228
-0.91165
-0.890746
-0.764387
-0.607604
-0.585338
-0.682195
-0.735578
-0.699833
-0.697514
-0.697184
-0.689028
-0.678344
-0.665574
-0.643612
-0.638763
-0.660749
-0.713547
-0.932318
-0.94876
-0.954379
-0.975367
-0.966067
-0.958417
-0.965862
-0.956718
-0.908375
-0.754058
-0.650584
-0.707141
-0.753042
-0.738927
-0.746047
-0.747608
-0.725907
-0.712934
-0.699542
-0.679927
-0.676066
-0.718213
-0.825081
-0.964342
-0.969002
-0.978315
-0.983012
-0.977114
-0.974691
-0.970739
-0.966155
-0.911799
-0.820994
-0.726117
-0.737005
-0.786306
-0.774656
-0.757143
-0.746031
-0.727408
-0.716118
-0.707791
-0.705535
-0.736373
-0.854022
-0.935553
-0.97612
-0.980764
-0.981035
-0.980104
-0.973265
-0.968943
-0.960084
-0.957838
-0.896528
-0.831074
-0.79525
-0.796139
-0.830481
-0.793367
-0.773041
-0.743288
-0.731799
-0.728769
-0.734961
-0.772705
-0.870622
-0.955477
-0.98339
-0.978374
-0.973409
-0.96804
-0.959366
-0.949813
-0.946296
-0.932454
-0.921411
-0.877648
-0.85353
-0.840705
-0.832276
-0.817943
-0.781267
-0.760489
-0.747588
-0.741422
-0.759581
-0.817449
-0.907282
-0.971645
-0.991287
-0.996316
-0.981273
-0.970751
-0.956496
-0.939121
-0.922697
-0.916654
-0.903608
-0.889187
-0.867197
-0.852119
-0.834729
-0.816584
-0.794376
-0.774605
-0.766267
-0.763139
-0.778796
-0.844655
-0.945487
-0.983249
-0.995775
-0.998131
-0.999156
-0.978481
-0.957514
-0.92708
-0.907013
-0.893382
-0.883981
-0.874242
-0.862896
-0.851687
-0.842306
-0.827268
-0.811018
-0.793292
-0.784904
-0.786687
-0.814263
-0.868956
-0.952684
-0.990408
-0.997009
-0.998475
-0.999076
-0.99957
-0.976805
-0.94776
-0.923462
-0.9085
-0.897313
-0.884599
-0.870069
-0.859171
-0.849553
-0.840017
-0.826947
-0.816729
-0.811561
-0.825617
-0.85764
-0.925078
-0.974033
-0.993949
-0.997157
-0.998351
-0.998704
-0.999151
-0.999676
-0.97681
-0.947734
-0.925879
-0.912344
-0.897139
-0.881892
-0.871819
-0.865919
-0.861735
-0.858379
-0.860064
-0.865639
-0.895562
-0.91329
-0.960934
-0.989519
-0.996517
-0.9976
-0.998537
-0.998829
-0.999006
-0.999137
-0.999735
-0.976877
-0.949226
-0.929981
-0.916279
-0.90115
-0.890313
-0.888627
-0.896905
-0.896837
-0.920117
-0.933475
-0.947594
-0.969096
-0.977449
-0.993661
-0.997219
-0.998
-0.998375
-0.999438
-0.999694
-0.999773
-0.999593
-0.999862
-0.978832
-0.953732
-0.93686
-0.925051
-0.913536
-0.906751
-0.911694
-0.939503
-0.952301
-0.972929
-0.976763
-0.983006
-0.989271
-0.993211
-0.997096
-0.998372
-0.999137
-0.999341
-0.999791
-0.999911
-0.999946
-0.999945
-0.99997
-0.979189
-0.95865
-0.945607
-0.939728
-0.933279
-0.931094
-0.949075
-0.973085
-0.983816
-0.990067
-0.990372
-0.992438
-0.994172
-0.996437
-0.998266
-0.99946
-0.999722
-0.999741
-0.999878
-0.999952
-0.999976
-0.999989
-0.99999
-0.980201
-0.963267
-0.953004
-0.950796
-0.946626
-0.948104
-0.961276
-0.980211
-0.990019
-0.993777
-0.994253
-0.995244
-0.99616
-0.998333
-0.999155
-0.999746
-0.999872
-0.999901
-0.999925
-0.99997
-0.999986
-0.999996
-0.999997
-0.981746
-0.967597
-0.960739
-0.960139
-0.95555
-0.956242
-0.967251
-0.978403
-0.990108
-0.995011
-0.996284
-0.997595
-0.998477
-0.99944
-0.999653
-0.999867
-0.999938
-0.999956
-0.999958
-0.999981
-0.999992
-0.999998
-0.999999
-0.983738
-0.972555
-0.968767
-0.967557
-0.962346
-0.962319
-0.970113
-0.982076
-0.992249
-0.996233
-0.997635
-0.998742
-0.999079
-0.999547
-0.999849
-0.999946
-0.999977
-0.999986
-0.999983
-0.999989
-0.999996
-0.999999
-1
-0.986077
-0.977463
-0.974411
-0.972184
-0.96729
-0.968926
-0.974734
-0.988416
-0.995434
-0.997616
-0.998105
-0.998351
-0.998497
-0.999566
-0.999931
-0.999977
-0.99999
-0.999996
-0.999996
-0.999997
-0.999998
-1
-1
-0.988843
-0.981853
-0.979592
-0.977247
-0.9716
-0.971837
-0.975987
-0.987774
-0.994047
-0.996801
-0.997516
-0.996498
-0.998285
-0.999605
-0.999965
-0.999989
-0.999995
-0.999998
-0.999999
-0.999999
-0.999999
-1
-1
-0.990933
-0.985547
-0.984641
-0.982121
-0.97455
-0.973026
-0.97715
-0.988349
-0.992461
-0.993895
-0.994715
-0.997678
-0.999437
-0.999907
-0.999983
-0.999995
-0.999998
-0.999999
-1
-1
-1
-1
-1
-0.992628
-0.988611
-0.988359
-0.984454
-0.976382
-0.974388
-0.97956
-0.990297
-0.99365
-0.994464
-0.995243
-0.999572
-0.999904
-0.999974
-0.999993
-0.999998
-0.999999
-1
-1
-1
-1
-1
-1
-0.993817
-0.991475
-0.990993
-0.986724
-0.978008
-0.975894
-0.982904
-0.995174
-0.99752
-0.998743
-0.999789
-0.999886
-0.999945
-0.999987
-0.999997
-0.999999
-1
-1
-1
-1
-1
-1
-1
-0.994441
-0.993156
-0.992104
-0.987708
-0.979427
-0.977494
-0.987346
-0.9982
-0.999074
-0.999513
-0.999758
-0.999909
-0.999966
-0.999991
-0.999998
-1
-1
-1
-1
-1
-1
-1
-1
-0.994626
-0.993672
-0.992164
-0.987678
-0.980436
-0.979331
-0.990758
-0.998648
-0.999228
-0.999572
-0.999794
-0.999923
-0.999973
-0.999991
-0.999998
-1
-1
-1
-1
-1
-1
-1
-1
-0.994592
-0.993577
-0.991736
-0.987358
-0.981358
-0.98084
-0.992075
-0.998452
-0.999003
-0.99938
-0.999744
-0.999923
-0.999974
-0.999992
-0.999997
-1
-1
-1
-1
-1
-1
-1
-1
-0.994356
-0.992865
-0.990345
-0.986648
-0.982233
-0.981684
-0.991733
-0.997744
-0.998167
-0.999225
-0.999721
-0.999923
-0.999981
-0.999996
-1
-1
-1
-1
-1
-1
-1
-1
-1
-0.993664
-0.990712
-0.988157
-0.985953
-0.983146
-0.982441
-0.989948
-0.995713
-0.997058
-0.998998
-0.999713
-0.999934
-0.999987
-0.999996
-1
-1
-1
-1
-1
-1
-1
-1
-1
-0.992514
-0.988225
-0.986636
-0.985662
-0.984194
-0.983667
-0.987892
-0.99216
-0.9955
-0.998644
-0.99966
-0.999946
-0.99999
-0.999998
-1
-1
-1
-1
-1
-1
-1
-1
-1
-0.99184
-0.987052
-0.986028
-0.985678
-0.985512
-0.985499
-0.988068
-0.991969
-0.997741
-0.999508
-0.999855
-0.999955
-0.999989
-0.999998
-1
-1
-1
-1
-1
-1
-1
-1
-1
-0.991393
-0.986588
-0.985964
-0.985949
-0.987451
-0.987985
-0.989435
-0.992678
-0.997135
-0.99896
-0.999655
-0.999912
-0.999981
-0.999998
-1
-1
-1
-1
-1
-1
-1
-1
-1
-0.991158
-0.986481
-0.986143
-0.98683
-0.990819
-0.991158
-0.993244
-0.996128
-0.99887
-0.999679
-0.999925
-0.999986
-0.999998
-1
-1
-1
-1
-1
-1
-1
-1
-1
-1
-0.991154
-0.986584
-0.986945
-0.988727
-0.994746
-0.994354
-0.996717
-0.997985
-0.99913
-0.999685
-0.999906
-0.999983
-0.999998
-1
-1
-1
-1
-1
-1
-1
-1
-1
-1
-0.991263
-0.98715
-0.989162
-0.991708
-0.996475
-0.996312
-0.997853
-0.998942
-0.999657
-0.999928
-0.999988
-0.999998
-1
-1
-1
-1
-1
-1
-1
-1
-1
-1
-1
-0.991495
-0.988077
-0.99185
-0.994421
-0.996552
-0.996951
-0.998042
-0.999114
-0.999718
-0.99993
-0.999989
-0.999999
-1
-1
-1
-1
-1
-1
-1
-1
-1
-1
-1
-0.991908
-0.989821
-0.99325
-0.995396
-0.996617
-0.997793
-0.999119
-0.999849
-0.999968
-0.999993
-0.999999
-1
-1
-1
-1
-1
-1
-1
-1
-1
-1
-1
-1
0.0204054
0.0295473
0.03679
0.0406918
0.0167827
0.0168887
0.0145652
0.00360747
-0.011567
-0.0274736
-0.0437118
-0.0605517
-0.118794
-0.226543
-0.305474
-0.362581
-0.4956
-0.506608
-0.480019
-0.449981
-0.457932
-0.435866
-0.407301
-0.380553
-0.452036
-0.437614
-0.423948
-0.411608
-0.504699
-0.498911
-0.495113
-0.491801
-0.552229
-0.559089
-0.565727
-0.57017
-0.760172
-0.775465
-0.790543
-0.798469
-0.894338
-0.909616
-0.922956
-0.927941
-0.961181
-0.970259
-0.974377
-0.974325
-0.991611
-0.994191
-0.994226
-0.993295
-0.998092
-0.998848
-0.998958
-0.998858
-0.999698
-0.999825
-0.999878
-0.9999
-0.999891
-0.999946
-0.999973
-0.999986
-0.999913
-0.999963
-0.999988
-0.999994
-0.999911
-0.999947
-0.999972
-0.999994
-0.99994
-0.999962
-0.99995
-0.999996
-0.999988
-0.999994
-0.999994
-0.999997
-0.999994
-0.999997
-0.999997
-0.999998
-0.999998
-0.999999
-0.999999
-0.999999
-0.999999
-1
-1
-1
-1
-1
-1
-1
-1
-1
-1
-1
-1
-1
-1
-1
-1
-1
-1
-1
-1
-1
-1
-1
-1
-1
-1
-1
-1
-1
-1
-1
-1
-1
-1
-1
-1
-1
-1
-1
-1
-1
-1
-1
-1
-1
-1
-1
-1
-1
-1
-1
-1
-1
-1
-1
-1
-1
-1
-1
-1
-1
-1
-1
-1
-1
-1
-1
-1
-1
-1
-1
-1
-1
-1
-1
-1
-1
-1
-1
0.0471649
-0.281409
-0.380162
-0.413359
-0.429324
-0.318999
-0.199259
-0.217493
-0.120877
-0.0494797
0.0189868
-0.0622592
-0.165383
-0.187042
-0.230968
-0.259301
-0.165098
0.0858583
0.254324
-0.0346671
-0.144369
-0.145298
-0.00824511
-0.147232
-0.0556344
-0.0730616
-0.165856
-0.148899
-0.0653479
-0.0202058
-0.156357
-0.21413
-0.246403
-0.306479
-0.337596
-0.205573
0.0498044
0.233785
-0.125187
-0.243597
-0.169624
-0.0835164
-0.178619
-0.192582
-0.191181
-0.242431
-0.120079
-0.0924064
-0.112728
-0.194624
-0.240477
-0.324603
-0.343995
-0.163114
0.0642535
0.143335
0.187461
-0.440728
-0.485077
-0.394002
-0.315577
-0.51301
-0.287449
-0.172383
-0.107277
-0.0667339
-0.0696345
-0.145977
-0.246978
-0.302853
-0.378715
-0.327433
-0.119635
0.0279841
0.096843
0.103733
-0.41196
-0.362417
-0.302204
-0.222618
-0.141756
-0.088343
-0.0679219
-0.0625685
-0.0992189
-0.131473
-0.216312
-0.32789
-0.359057
-0.334748
-0.131758
0.0066615
0.0558275
0.126099
0.0951812
-0.339894
-0.286042
-0.241157
-0.191969
-0.162482
-0.152032
-0.150393
-0.184375
-0.24391
-0.256135
-0.217073
-0.257266
-0.268258
-0.270104
-0.234098
-0.204867
-0.207885
0.00191767
-0.199112
-0.393662
-0.372283
-0.348623
-0.33823
-0.358637
-0.380743
-0.409407
-0.433695
-0.438437
-0.386446
-0.263696
-0.223255
-0.196623
-0.222651
-0.322475
-0.461596
-0.548474
-0.333366
-0.658433
-0.487335
-0.482124
-0.481747
-0.506796
-0.553176
-0.599745
-0.673885
-0.729369
-0.756033
-0.7689
-0.705375
-0.53804
-0.417295
-0.336087
-0.605494
-0.771568
-0.84054
-0.743507
-0.894886
-0.577167
-0.594938
-0.612238
-0.673491
-0.716665
-0.77178
-0.805571
-0.870925
-0.905169
-0.921114
-0.880801
-0.804172
-0.802316
-0.748065
-0.858894
-0.942312
-0.958964
-0.934024
-0.970625
-0.80139
-0.78412
-0.789671
-0.828945
-0.856515
-0.905519
-0.910969
-0.941576
-0.959446
-0.972091
-0.952771
-0.93524
-0.944922
-0.937916
-0.957735
-0.98097
-0.984638
-0.982451
-0.990796
-0.928461
-0.926979
-0.938035
-0.921201
-0.94608
-0.962748
-0.963529
-0.978602
-0.983416
-0.990622
-0.984768
-0.979403
-0.981149
-0.979199
-0.986462
-0.991667
-0.993471
-0.994843
-0.996408
-0.970066
-0.975495
-0.978327
-0.974483
-0.981323
-0.987267
-0.987323
-0.993633
-0.994558
-0.996477
-0.994131
-0.993757
-0.991087
-0.990393
-0.992151
-0.995193
-0.996676
-0.997454
-0.997787
-0.991979
-0.993837
-0.99348
-0.993805
-0.99407
-0.996194
-0.996634
-0.998145
-0.998368
-0.998869
-0.997762
-0.996962
-0.994443
-0.993982
-0.994788
-0.996655
-0.997991
-0.998477
-0.998204
-0.998704
-0.998947
-0.998673
-0.998052
-0.998361
-0.998926
-0.999306
-0.999462
-0.9994
-0.999614
-0.999308
-0.99859
-0.996476
-0.99571
-0.996524
-0.99751
-0.998739
-0.999245
-0.998453
-0.999914
-0.999887
-0.999794
-0.999557
-0.999696
-0.99968
-0.999725
-0.999815
-0.99973
-0.999857
-0.999708
-0.998848
-0.997693
-0.997374
-0.997849
-0.998237
-0.999282
-0.999646
-0.99865
-0.999994
-0.999995
-0.999961
-0.99993
-0.999974
-0.999946
-0.999909
-0.999955
-0.999898
-0.999906
-0.999962
-0.999936
-0.999781
-0.999283
-0.99909
-0.998999
-0.999651
-0.999826
-0.998811
-0.999998
-0.999999
-0.999993
-0.999989
-0.999995
-0.999993
-0.999983
-0.999995
-0.999982
-0.999908
-0.999985
-0.999993
-0.999988
-0.999905
-0.99978
-0.999475
-0.999815
-0.999889
-0.998932
-0.999998
-1
-0.999999
-0.999999
-0.999999
-0.999999
-0.999998
-0.999999
-0.999998
-0.999971
-0.999993
-0.999997
-0.999999
-0.999996
-0.999962
-0.999846
-0.999926
-0.999923
-0.999017
-0.999999
-1
-1
-1
-1
-1
-1
-1
-1
-0.99999
-0.999998
-0.999999
-1
-1
-0.999987
-0.999942
-0.999975
-0.999942
-0.999081
-0.999999
-1
-1
-1
-1
-1
-1
-1
-1
-0.999997
-1
-1
-1
-1
-0.99999
-0.999975
-0.999989
-0.999948
-0.999133
-0.999999
-1
-1
-1
-1
-1
-1
-1
-1
-1
-1
-1
-1
-1
-0.999987
-0.999991
-0.999994
-0.999949
-0.999181
-1
-1
-1
-1
-1
-1
-1
-1
-1
-1
-1
-1
-1
-1
-1
-0.999999
-0.999996
-0.999944
-0.999219
-1
-1
-1
-1
-1
-1
-1
-1
-1
-1
-1
-1
-1
-1
-1
-1
-0.999994
-0.999939
-0.999247
-1
-1
-1
-1
-1
-1
-1
-1
-1
-1
-1
-1
-1
-1
-1
-1
-0.999993
-0.999939
-0.999297
-1
-1
-1
-1
-1
-1
-1
-1
-1
-1
-1
-1
-1
-1
-1
-0.999999
-0.999993
-0.999945
-0.999348
-1
-1
-1
-1
-1
-1
-1
-1
-1
-1
-1
-1
-1
-1
-1
-0.999999
-0.999993
-0.999962
-0.999402
-1
-1
-1
-1
-1
-1
-1
-1
-1
-1
-1
-1
-1
-1
-1
-1
-0.999994
-0.999976
-0.999455
-1
-1
-1
-1
-1
-1
-1
-1
-1
-1
-1
-1
-1
-1
-1
-0.999999
-0.999994
-0.999985
-0.999516
-1
-1
-1
-1
-1
-1
-1
-1
-1
-1
-1
-1
-1
-1
-1
-0.999999
-0.999997
-0.999991
-0.999564
-1
-1
-1
-1
-1
-1
-1
-1
-1
-1
-1
-1
-1
-1
-1
-0.999999
-0.999998
-0.999995
-0.999608
-1
-1
-1
-1
-1
-1
-1
-1
-1
-1
-1
-1
-1
-1
-1
-1
-0.999999
-0.999998
-0.999647
-1
-1
-1
-1
-1
-1
-1
-1
-1
-1
-1
-1
-1
-1
-1
-1
-1
-0.999999
-0.999684
-1
-1
-1
-1
-1
-1
-1
-1
-1
-1
-1
-1
-1
-1
-1
-1
-1
-0.999999
-0.999716
-1
-1
-1
-1
-1
-1
-1
-1
-1
-1
-1
-1
-1
-1
-1
-1
-1
-0.999999
-0.999565
-1
-1
-1
-1
-1
-1
-1
-1
-1
-1
-1
-1
-1
-1
-1
-1
-1
-0.999999
-0.99975
-1
-1
-1
-1
-1
-1
-1
-1
-1
-1
-1
-1
-1
-1
-1
-1
-1
-0.999999
-0.999771
-1
-1
-1
-1
-1
-1
-1
-1
-1
-1
-1
-1
-1
-1
-1
-1
-1
-0.999999
-0.999807
-1
-1
-1
-1
-1
-1
-1
-1
-1
-1
-1
-1
-1
-1
-1
-1
-1
-0.999999
-0.999826
-1
-1
-1
-1
-1
-1
-1
-1
-1
-1
-1
-1
-1
-1
-1
-1
-1
-0.999999
-0.99991
-1
-1
-1
-1
-1
-1
-1
-1
-1
-1
-1
-1
-1
-1
-1
-1
-1
-0.999999
-0.999955
-1
-1
-1
-1
-1
-1
-1
-1
-1
-1
-1
-1
-1
-1
-1
-1
-1
-0.999999
-0.999754
-1
-1
-1
-1
-1
-1
-1
-1
-1
-1
-1
-1
-1
-1
-1
-1
-1
-0.999999
-0.999803
)
;

boundaryField
{
    leftWall
    {
        type            zeroGradient;
    }
    rightWall
    {
        type            zeroGradient;
    }
    lowerWall
    {
        type            zeroGradient;
    }
    atmosphere
    {
        type            zeroGradient;
    }
    defaultFaces
    {
        type            empty;
    }
}


// ************************************************************************* //
