/*--------------------------------*- C++ -*----------------------------------*\
| =========                 |                                                 |
| \\      /  F ield         | foam-extend: Open Source CFD                    |
|  \\    /   O peration     | Version:     4.1                                |
|   \\  /    A nd           | Web:         http://www.foam-extend.org         |
|    \\/     M anipulation  |                                                 |
\*---------------------------------------------------------------------------*/
FoamFile
{
    version     2.0;
    format      ascii;
    class       volScalarField;
    location    "0.95";
    object      p;
}
// * * * * * * * * * * * * * * * * * * * * * * * * * * * * * * * * * * * * * //

dimensions      [1 -1 -2 0 0 0 0];

internalField   nonuniform List<scalar> 
2268
(
2382.15
2246.75
2139.8
2076.19
1792.33
1930.12
2018.97
2009.48
1642.2
962.442
984.911
937.91
967.577
962.148
944.163
934.742
918.661
905.638
896.345
887.955
887.535
942.782
1928.65
2378.66
2212.36
2131.4
1725.88
1354.91
1442.37
1320.92
1168.4
987.111
917.227
938.196
867.664
903.853
895.337
882.341
876.97
859.947
844.892
836.815
829.817
826.87
831.299
888.376
2395.68
2283.82
2249.9
1774.82
1617.93
1611.4
1384.81
1460.04
1573.6
1421.82
874.823
821.691
835.212
915.27
836.489
817.639
803.491
784.518
773.576
767.321
769.003
769.124
769.762
2458.86
2496.64
2515.18
2257.3
1691.58
1503.71
1182.31
1070.08
898.125
850.399
812.166
818.406
991.638
1567.64
784.346
759.304
741.585
722.676
714.065
705.988
708.245
710.787
704.031
2477.27
2443.54
2413.03
1722.79
1493.88
1451.59
1183.05
876.833
734.368
819.551
779.632
1135.03
1555.37
1975.42
910.411
723.718
703.828
658.904
650.467
644.946
650.147
652.206
650.391
2449.67
2356.86
2368.56
2026.86
1757.33
2074.86
2053.71
1578.23
1176.79
917.658
773.253
1514.55
1626.26
2050.32
1085.48
771.981
732.331
621.489
596.026
594.713
592.581
601.945
589.637
2413.3
2384.99
2320.14
2172.57
2040.79
2302.8
2156.49
2002.85
1853.31
1601.39
1131.64
2041.71
1641.16
1972.35
1206.47
991.676
1324.32
888.106
739.828
573.935
558.876
568.936
580.655
2361.69
2313.24
2277.07
2218.54
2122.65
2223.32
2217.88
2195.54
2271.43
2324.06
1895.15
2287.12
1983.55
1919.4
1689.8
1661.86
2006.81
1617.01
1361.72
1242.07
863.87
731.462
975.328
2776.57
2775.51
2642.53
2237.34
2289.96
2245.3
2247.49
1991.77
2024.39
2086.13
1970.25
2134.37
2168.11
2159.21
2218.12
2213.41
2219.63
2150.68
2231.14
2721.69
2748.43
2625.22
2184.8
2391.25
2442.13
2317.41
2186.11
2102.01
2229.77
2232.83
2145.17
2392.36
2339.34
2393.61
2331.81
2344.31
2205.08
2229.17
2526.74
2690.38
2614.09
2310.78
2442.7
2412.62
2329.85
2266.88
2310.76
2330.63
2230.35
2244.3
2266.68
2100.45
2337.96
2373.21
2414.42
2222.8
2205.57
2454.06
2562.38
2531.61
2313.66
2319.63
2246.82
2047.67
1917.33
2008.06
1960.1
1890.55
1924.13
2010.67
2089.61
2244.56
2291.82
2347.8
2292.75
2176.55
2343.86
2509.92
2504.37
2274.24
2330.27
2132.52
1996.3
1865.5
1777.53
1726.97
1711.93
2001.64
1867.34
2062.78
2189.79
2236.92
2314.42
2297.25
2169.06
2184.37
2325.36
2406.83
2259.65
2162.26
1928.39
1832.22
1901.64
1901.02
1915.45
1717.8
2188.11
2100.54
2099.08
2166.8
2156.62
2274.65
2280.13
2130.06
2100.79
2164.11
2281.73
2037.97
1892.45
1606.97
1640.23
1463.42
1930.12
2106.52
1963.63
2139.39
2159.62
2123.8
2131.32
2109.08
2200.86
2252.08
2112.12
1807.67
1964.81
1929.11
1683.67
1631.75
1644.56
1928.34
1716.5
2126.76
2204.33
2041.93
2101.12
2136.47
2086.24
2059.64
2046.81
2131.9
2225.36
2096.21
2301.48
2024.2
2098.54
2088.33
2205.5
2276.56
2235.28
2303.15
2296.09
2323.09
2316.87
2275.9
2186.03
2066.5
2115.28
2194.05
2185.16
2094.6
2088.24
2017.78
1776.52
1792.13
2160.06
2205.88
1534.1
1291.28
1707.2
1984.4
2095.75
2182.12
2256.9
2204.81
2236.11
2286.28
2153.74
2018.01
2301.94
2248.64
2235.36
2189.72
2149.66
2134.2
2068.31
2022.31
1874.77
2156.47
2129.61
1329.82
1135.61
1440.28
1810.25
1934.44
1653.74
2095.06
2134.2
2191
2285.2
2149.33
2148.65
2230.99
2148.74
2151.87
2110.11
2080.35
2002.17
2015.8
2085.32
2057.09
2031.29
1903.99
1179.08
1153.93
1317.44
1647.59
1903.71
1931.68
1961.27
2051.1
2199.44
2177.73
2069.77
2090.99
2175.68
2124.12
2076.91
2123.93
1874.27
1745.73
2021.39
2076.67
2103.5
1882.87
1490.83
1182.79
1213.47
1200.86
1386.78
1664.88
1584.15
1563.04
2110.84
2149.75
2104.13
2132.31
2113.06
2164.81
1958.59
2003.82
2114.55
2143.92
1796.59
1884.1
2068.29
1837.81
1343.45
1133.71
1057.03
1063.81
1040.82
1015.14
1281.03
1064.45
1223.68
1920.65
2062.26
1925.85
2047.36
1839.38
1724.39
1723.15
2000.8
1933.39
1811.07
1664.41
1552.02
1353.95
1235.72
1201.26
892.49
819.802
689.749
801.169
563.898
744.147
758.489
1222.69
1606.14
1623.64
1654.12
1687.47
1391.27
1374.71
1475.88
1567.43
1361.85
1171.8
1101.1
1110.99
1088.59
1109.78
1217.33
707.865
553.219
328.468
379.027
318.473
478.043
540.575
1005.93
1229.73
1376.29
1283.51
1101.26
980.918
970.514
975.545
997.164
932.526
849.774
796.474
815.899
925.142
1021.13
1064.96
543.742
415.062
232.762
202.831
195.347
279.042
346.878
558.924
951.411
1133.49
970.408
735.024
593.3
642.945
743.201
738.356
756.603
730.038
713.482
807.443
929.649
974.594
951.935
287.864
221.763
182.39
165.725
177.007
197.917
200.67
231.42
479.551
889.373
939.944
654.805
490.487
638.45
594.206
582.565
641.804
628.77
634.56
658.046
660.731
619.873
460.524
171.245
152.465
158.613
141.797
148.575
143.387
136.994
138.231
190.433
469.756
732.047
601.756
460.257
449.254
450.806
424.31
515.578
539.488
477.478
534.578
593.912
440.599
182.018
145.651
142.832
136.095
131.424
139.183
134.809
136.836
141.139
176.707
330.16
533.259
486.236
369.946
421.033
418.395
458.415
466.447
504.767
496.471
456.581
365.393
123.864
26.4033
136.825
134.435
130.329
134.861
134.965
132.389
129.069
142.271
198.556
290.925
361.353
358.912
269.776
284.916
375.538
422.681
421.283
444.922
403.631
295.895
95.0666
12.3647
0.0629664
139.027
139.598
137.385
135.675
143.663
138.119
156.521
160.936
225.854
251.269
250.364
253.505
291.175
344.634
373.805
383.598
372.016
342.026
201.846
52.4197
2.6767
-0.528139
-0.575873
137.658
141.393
139.04
146.32
144.156
151.202
167.405
192.098
204.228
227.952
241.028
258.961
364.768
340.375
339.489
313.366
273.473
141.385
17.4504
0.42842
-0.920751
-0.982196
-1.12759
145.594
151.399
162.429
178.144
190.238
182.243
186.09
245.371
206.12
249.959
225.894
236.58
316.912
327.861
309.723
225.843
109.127
13.485
-0.0247192
-0.532255
-1.19227
-0.986367
-1.28199
142.853
156.987
141.73
155.117
167.459
163.008
167.124
197.139
241.731
248.058
203.63
205.383
250.716
204.629
130.063
35.8947
2.88877
-0.704892
-1.49328
-1.40364
-1.59996
-1.617
-1.58772
136.737
155.882
143.954
142.747
175.32
150.232
162.346
135.536
168.136
168.508
154.159
123.876
75.6958
52.8144
11.018
-0.177594
-1.17468
-1.71762
-1.82596
-1.90328
-1.97766
-1.91863
-1.9395
126.947
137.387
143.489
135.136
88.2434
104.472
141.058
104.089
90.1464
58.6402
42.0269
25.0909
6.05269
1.02645
-1.29049
-1.82419
-1.72226
-1.58075
-1.80503
-1.82212
-1.93182
-1.98012
-1.88841
99.547
107.482
117.451
120.7
88.1944
80.6788
53.184
37.6194
22.5066
10.2784
6.91537
2.94617
0.422259
-1.60474
-2.11686
-1.69371
-2.05415
-2.05092
-2.23383
-2.12859
-2.16169
-2.10422
-2.14911
74.5039
100.711
78.5521
81.3664
72.6034
58.4724
26.5242
9.77868
4.29612
3.81658
1.06297
-0.444714
-1.94178
-1.93914
-2.27702
-2.23591
-2.35015
-2.25782
-2.3206
-2.27063
-2.25419
-2.27143
-2.18938
25.9312
31.6844
38.2208
42.9739
35.1684
29.6943
14.981
5.99084
2.84165
0.127932
-1.00988
-0.866541
-2.11536
-2.30856
-2.66566
-2.47001
-2.52681
-2.50383
-2.41001
-2.52675
-2.52667
-2.56481
-2.67459
10.9955
3.54309
14.718
29.333
14.0532
14.7144
11.2964
1.84757
0.43816
-1.59386
-1.97134
-2.49196
-2.53126
-2.71665
-2.80664
-2.82478
-2.72653
-2.72326
-2.78234
-2.631
-2.53955
-2.63549
-2.6554
3.69232
-1.15233
15.2501
12.1007
13.1385
10.9565
-1.37824
-2.18423
-2.59169
-3.82642
-2.76335
-2.38559
-2.79545
-2.91003
-2.91605
-2.94043
-2.93464
-2.97654
-3.00137
-3.09702
-3.09877
-3.05038
-2.97186
-10.2292
-4.01627
7.86953
3.43198
3.55768
1.7959
1.77923
-2.95926
-3.1894
-3.56497
-3.39078
-3.34605
-3.09604
-3.06002
-3.2177
-3.28103
-3.23121
-3.32369
-3.31558
-3.2496
-3.13451
-3.13575
-3.06438
-17.9737
-12.7789
-4.54659
-1.76425
-2.40141
-4.71711
-6.60027
-5.56235
-4.71033
-3.5664
-3.82204
-3.71727
-3.49775
-3.63223
-3.58146
-3.47269
-3.37515
-3.33382
-3.36968
-3.5651
-3.41501
-3.35822
-3.35477
-21.4433
-11.7131
-7.43228
-2.07728
3.65091
1.00816
1.07025
-3.20279
-3.87259
-4.67899
-4.26044
-4.12004
-4.26662
-4.07553
-3.89838
-3.52692
-3.84922
-3.75562
-3.53104
-3.55266
-3.70486
-3.51403
-3.41852
0.228846
-3.75615
-5.81004
-5.3347
-0.0346176
-2.15739
0.766766
-4.08766
-4.31806
-4.46703
-4.49674
-4.63678
-4.54594
-4.21444
-4.16509
-4.30952
-4.25701
-4.08936
-4.04105
-3.87786
-3.67434
-3.62289
-3.80348
14.7756
2.10202
-3.7327
-4.23858
-0.288796
-3.1372
-2.99058
-5.17112
-5.5057
-5.01122
-4.97774
-4.498
-4.41667
-4.39976
-4.44939
-4.50495
-4.13282
-4.23423
-4.24838
-4.1201
-3.94485
-4.09734
-4.10938
5.4169
2.63549
-1.28439
-1.1309
1.81368
-2.00329
-3.95354
-5.8517
-5.51826
-5.47849
-5.04939
-5.05011
-4.92146
-4.83129
-4.60412
-4.46099
-4.40779
-4.46962
-4.1753
-4.29822
-4.08374
-4.27043
-3.9878
-1.7688
-0.62676
-0.608738
0.128238
1.16933
-1.49741
-5.86462
-5.59571
-6.04069
-5.79679
-5.48316
-5.44615
-5.23267
-5.04239
-4.76624
-4.72514
-4.53294
-4.36236
-4.41128
-4.35458
-4.25102
-4.07707
-4.1965
2.34917
0.932077
1.01105
0.505478
0.694838
-1.48648
-6.58279
-6.38365
-6.40929
-6.22404
-6.07107
-5.81585
-5.31651
-5.33398
-5.36634
-4.93724
-4.7653
-4.68332
-4.58485
-4.54162
-4.49764
-4.57542
-4.39589
4.54372
1.12213
2.06812
0.991643
1.19955
-1.89592
-7.38218
-7.94463
-7.81392
-7.48435
-6.81408
-6.13836
-5.64795
-5.37774
-5.04532
-5.58522
-4.90513
-4.77446
-4.74115
-4.67531
-4.64814
-4.68992
-4.62223
1.71391
-0.753002
0.0603971
0.440751
0.969351
-1.09223
-8.2325
-10.1418
-9.41447
-8.20713
-6.5593
-6.49723
-5.97853
-6.02009
-5.47401
-5.20432
-5.19131
-5.30856
-4.84225
-4.81914
-4.7787
-4.57735
-4.69179
0.990224
0.676092
0.191434
0.382052
-0.308008
-0.859044
-6.37126
-10.1199
-9.08613
-7.91433
-7.28545
-6.53748
-6.07486
-5.84661
-5.57745
-5.47534
-5.29862
-5.03004
-5.35793
-4.89012
-4.85947
-4.83676
-4.80802
2.47233
3.93242
1.86401
2.1233
0.109692
-0.808615
-4.33871
-8.71251
-8.76054
-7.7675
-6.62319
-6.43641
-5.99612
-5.89567
-5.66839
-5.47682
-5.37966
-5.32249
-5.01582
-5.14226
-5.19306
-4.89817
-5.12397
0.268484
4.34279
2.84782
1.29368
-1.00509
-2.48105
-1.78402
-7.68712
-7.15824
-6.61445
-6.34757
-6.11989
-6.20049
-5.55457
-5.59275
-5.45005
-5.46251
-5.31972
-5.2478
-5.1694
-5.30201
-5.2298
-5.27872
-2.88465
0.0234409
-1.21806
-3.14752
0.040199
-5.81233
-8.31105
-6.23336
-5.96716
-6.194
-6.31358
-6.06408
-5.8153
-5.93809
-6.00857
-5.53556
-5.49417
-5.48934
-5.32074
-5.53123
-5.16623
-5.36408
-5.18918
-8.23395
-4.82335
-5.12841
-7.45604
-8.92982
-8.16418
-6.61016
-5.2596
-5.67052
-5.84567
-6.21943
-5.78808
-6.05494
-5.62039
-5.70086
-5.80556
-5.6262
-5.79084
-5.43138
-5.56426
-5.47168
-5.45031
-5.30879
-11.7851
-9.23774
-8.31604
-8.58361
-10.3922
-6.94779
-6.73482
-5.14397
-5.64443
-5.77258
-5.79857
-5.95567
-5.62122
-5.81513
-5.94129
-5.66706
-5.6917
-5.48427
-5.76243
-5.42783
-5.55221
-5.45474
-5.58457
-11.5823
-11.8635
-12.2932
-10.2334
-10.7637
-7.5104
-5.32039
-5.91617
-5.79515
-5.82647
-5.84928
-5.83991
-5.87738
-5.71782
-5.62832
-5.71817
-5.64177
-5.63129
-5.69671
-5.59871
-5.63224
-5.87804
-5.66165
-13.9565
-19.0226
-13.6647
-10.9482
-12.6007
-8.76256
-6.6829
-5.95184
-5.83944
-5.7391
-5.87109
-5.77353
-5.85037
-5.90202
-6.04145
-5.81504
-5.97721
-5.94726
-5.83385
-5.91484
-5.90669
-5.76331
-5.77402
2074.31
2085.49
1910.2
1762.53
2110.93
2132.31
2090.39
2055.33
2071
2111.15
2154.99
2149.25
1933.4
1796.34
1828.22
1693.89
1223.25
1200.99
1329.09
1424.23
1308.95
1366.41
1432.66
1526.38
1286.01
1327.01
1370.96
1396.37
1113.28
1128.52
1145.17
1172.69
929.544
907.596
882.61
872.712
350.293
307.646
267.058
255.981
81.3357
60.0708
45.5147
41.5139
11.8065
6.92262
5.14068
4.89691
-0.501021
-0.412372
-0.280241
-0.262526
-0.657414
-0.746262
-0.800934
-0.863272
-1.15895
-1.14002
-1.14426
-1.15881
-1.19486
-1.21528
-1.28796
-1.27258
-1.64441
-1.64547
-1.6988
-1.66967
-1.90097
-1.87249
-1.84401
-1.81474
-1.89872
-1.91914
-1.93517
-1.94457
-2.15268
-2.0738
-2.05902
-2.05877
-2.21799
-2.23947
-2.26965
-2.29465
-2.60462
-2.54645
-2.52551
-2.50246
-2.7876
-2.79341
-2.74262
-2.82973
-2.93758
-3.00905
-2.98621
-2.96353
-3.02797
-3.00941
-3.05843
-3.14163
-3.3531
-3.37438
-3.33409
-3.2558
-3.39311
-3.39882
-3.37038
-3.3793
-3.79539
-3.76591
-3.76052
-3.76188
-3.90922
-3.89925
-3.87638
-3.84713
-4.05845
-4.09246
-4.09473
-4.07195
-4.19983
-4.15942
-4.09111
-4.07115
-4.34962
-4.31578
-4.3077
-4.30394
-4.59119
-4.63157
-4.54492
-4.49814
-4.51169
-4.54164
-4.5702
-4.57758
-4.87281
-4.8739
-4.79177
-4.73255
-4.84298
-4.89544
-4.99204
-4.90289
-5.20581
-5.22649
-5.07863
-5.12235
-5.31132
-5.30728
-5.27479
-5.36091
-5.28764
-5.29036
-5.29763
-5.24596
-5.4531
-5.51058
-5.51286
-5.57092
-5.74082
-5.63671
-5.64293
-5.56026
-5.8135
-5.84864
-5.84268
-5.8544
2242.6
1965.59
1736.25
1676.15
1625.01
1902.58
2093.3
2091.89
2190.36
2188.61
2170.44
2144.73
2026.86
1993.46
1934.66
1887.15
2073.67
2164
1973.76
2208.03
2116.54
2049.87
2197.34
2123.65
2176.29
2184.33
2088.06
2069.01
2140.12
2121.83
1987.34
1899.93
1853.75
1721.28
1707.15
1957.44
2113.22
1935.75
2114.6
1943.57
2038.12
2138.4
2034.3
2023.73
2015.69
1931.46
2082.07
2019.25
1986.22
1838.64
1810.92
1624.84
1601.64
1927.8
2031.46
1957.69
1933.49
1484.34
1381.49
1614.77
1756.57
1293.23
1866.13
1972.02
2057.03
2011.56
1965.7
1868.9
1693.2
1628.3
1435.7
1688.39
1890.47
1991.63
1914.43
1938.76
1538.94
1640.34
1762.16
1888.93
1967.71
2076.67
1976.4
1936.04
1956.13
1870.86
1703.64
1604.13
1434.25
1491.87
1885.46
1847.95
1875.43
1875.14
1845.91
1621.73
1717.36
1788.68
1853.1
1868.49
1880.99
1847.99
1820.61
1657.06
1563.13
1704.23
1613.68
1609.65
1603.55
1664.53
1696.53
1660.34
1758.86
1603.94
1450.27
1452.36
1524.89
1528.98
1464.69
1393.78
1268.71
1174.61
1173.47
1204.83
1459.91
1639.94
1695.64
1588.13
1462.03
1076.83
838.118
1345.29
555.806
1077.97
1100.08
1170.46
1037.38
928.961
730.444
551.31
397.387
345.662
294.044
459.101
896.557
1172.25
1357.29
677.478
273.882
145.706
345.687
73.7962
828.156
778.019
728.077
562.849
442.512
296.111
220.519
112.411
69.5567
47.4161
94.0494
231.773
231.152
336.498
119.216
22.805
13.9056
31.9046
9.46583
231.233
282.039
254.519
178.281
121.943
56.5939
53.2148
26.3927
13.9339
8.00526
19.8984
33.9175
27.1365
32.9845
15.1802
5.18782
3.63309
4.18387
3.42934
34.8608
39.6867
29.4896
41.6757
21.4949
10.2988
10.5171
3.38113
1.67388
0.922087
1.98345
3.46083
3.22572
4.0094
0.885945
1.35029
1.17688
1.58524
1.94612
6.78827
4.12729
2.23157
4.10835
1.13995
0.327215
-0.634646
-0.199427
-0.0121756
0.110913
0.181797
0.733851
0.931319
0.936008
0.368059
0.701639
0.492002
0.734139
1.22097
-0.124384
-0.265582
-0.113991
-0.241539
-0.204158
-0.558753
-0.41585
-0.656523
-0.681967
-0.762081
-0.288104
-0.522078
-0.117976
-0.0467059
0.42682
0.0804423
-0.038883
-0.159938
0.255738
-0.917918
-1.2281
-1.2159
-1.42172
-1.35354
-1.42292
-1.04753
-0.98988
-0.973159
-0.83653
-1.14968
-0.912169
-0.970539
-1.10422
-0.859298
-0.501211
-0.573211
-0.679765
-0.292685
-1.17227
-1.18564
-1.125
-1.261
-1.31545
-1.24089
-1.26951
-1.34671
-1.1383
-1.19125
-1.0273
-1.22255
-1.31593
-1.24249
-1.16914
-0.463604
-0.779639
-0.94608
-0.681261
-1.35652
-1.42849
-1.54679
-1.56478
-1.51073
-1.6526
-1.50656
-1.57047
-1.46231
-1.48112
-1.39315
-1.51705
-1.629
-1.66449
-1.67279
-1.74536
-1.20829
-1.28409
-1.08019
-1.64007
-1.65967
-1.60866
-1.64134
-1.56628
-1.53069
-1.69632
-1.52865
-1.52364
-1.54314
-1.521
-1.56072
-1.64887
-1.53942
-1.77084
-1.72367
-1.43064
-1.48979
-1.34764
-1.70373
-1.84593
-1.7329
-1.89873
-1.82225
-1.79795
-1.68981
-1.76371
-1.73161
-1.77733
-1.72626
-1.77373
-1.74509
-1.84548
-1.66401
-1.64099
-1.61773
-1.64878
-1.56532
-1.98662
-1.92652
-1.96484
-1.86277
-1.82628
-1.89494
-1.95348
-1.92156
-1.91522
-1.90819
-1.9104
-1.90033
-1.91148
-1.8972
-1.93913
-1.81527
-1.74778
-1.81471
-1.75053
-2.01824
-2.05132
-2.01453
-2.09558
-2.17856
-2.12313
-1.9545
-2.10497
-1.9801
-2.09677
-2.06979
-2.09421
-2.05247
-2.1177
-2.01186
-2.17999
-1.93963
-2.00169
-1.92219
-2.47942
-2.27075
-2.46023
-2.2916
-2.47185
-2.12671
-2.42709
-2.22413
-2.36942
-2.23686
-2.27788
-2.22152
-2.23835
-2.25688
-2.283
-2.2936
-2.21294
-2.1904
-2.15135
-2.46215
-2.50626
-2.49807
-2.5018
-2.39122
-2.60335
-2.57929
-2.50103
-2.47042
-2.54497
-2.44906
-2.47445
-2.40559
-2.36913
-2.34183
-2.2599
-2.32198
-2.31252
-2.29284
-2.72663
-2.71826
-2.71166
-2.69612
-2.68192
-2.77733
-2.56618
-2.61105
-2.63407
-2.49837
-2.61455
-2.54881
-2.56224
-2.57285
-2.51521
-2.5099
-2.46802
-2.49746
-2.44936
-2.92381
-2.92748
-2.96248
-2.87324
-2.82609
-2.76051
-2.83717
-2.82126
-2.83626
-2.78598
-2.78239
-2.76369
-2.73678
-2.76002
-2.67229
-2.68737
-2.63362
-2.66874
-2.62694
-3.07874
-2.98503
-2.97337
-3.02355
-2.96147
-2.98334
-2.78276
-2.87853
-2.93873
-2.9174
-2.94033
-2.89693
-2.86151
-2.79877
-2.74195
-2.67556
-2.78671
-2.81844
-2.79786
-3.17492
-3.34183
-3.0489
-3.22879
-3.21502
-3.20809
-3.31213
-3.3638
-3.18726
-3.04782
-3.10291
-3.15519
-3.09711
-3.27958
-2.9678
-3.19509
-2.80162
-3.03726
-2.95881
-3.4394
-3.58184
-3.51995
-3.37874
-3.2381
-3.34245
-3.47299
-3.22134
-3.45349
-3.48353
-3.23754
-3.14749
-3.265
-3.3962
-3.34089
-3.27567
-3.32815
-3.20947
-3.18558
-3.66059
-3.52095
-3.59251
-3.54857
-3.70067
-3.56461
-3.40985
-3.51225
-3.3423
-3.52621
-3.45918
-3.61656
-3.46362
-3.35554
-3.52929
-3.48871
-3.38014
-3.39016
-3.37305
-3.83482
-3.83111
-3.92657
-3.75444
-3.73227
-3.70689
-3.69254
-3.68859
-3.66861
-3.7936
-3.54993
-3.62114
-3.61358
-3.59759
-3.48284
-3.58399
-3.58184
-3.54257
-3.52861
-4.01462
-3.91553
-3.82274
-3.92194
-4.02694
-3.88765
-3.78169
-3.6806
-3.77795
-3.6924
-4.00103
-3.79086
-3.79825
-3.55508
-3.74693
-3.72135
-3.73822
-3.68832
-3.69854
-4.10062
-4.09176
-4.08827
-4.04178
-3.92346
-4.05273
-4.00645
-4.17638
-4.02192
-4.00775
-3.98459
-3.97883
-4.02486
-4.15861
-3.92257
-3.91411
-3.93229
-3.88048
-3.88418
-4.28794
-4.23902
-4.22863
-4.21961
-4.19253
-4.20779
-4.15059
-4.17514
-4.16184
-4.19342
-4.36674
-4.33024
-4.23877
-4.24194
-4.02731
-4.06569
-4.09722
-3.99744
-3.84682
-4.45595
-4.41406
-4.39762
-4.36223
-4.32261
-4.38113
-4.3392
-4.51636
-4.34754
-4.27306
-4.16681
-4.14912
-4.2665
-4.19662
-4.49357
-4.28396
-4.26549
-4.19894
-4.4356
-4.58871
-4.54927
-4.53915
-4.5176
-4.511
-4.50939
-4.4564
-4.37333
-4.4654
-4.47341
-4.48428
-4.47383
-4.50455
-4.48053
-4.46606
-4.47729
-4.51101
-4.66232
-4.4997
-4.65724
-4.73255
-4.70366
-4.67721
-4.66969
-4.66682
-4.64717
-4.65728
-4.65001
-4.62302
-4.60162
-4.59888
-4.62096
-4.64537
-4.78493
-4.69366
-4.84405
-4.76257
-4.67397
-4.96512
-4.7517
-4.83766
-4.82197
-4.80913
-4.79866
-4.78448
-4.7752
-4.78062
-4.78506
-4.78801
-4.78691
-4.80148
-4.83038
-4.67082
-5.01477
-4.63859
-5.02849
-4.77871
-5.14918
-5.18893
-5.00215
-5.03994
-4.9753
-4.97799
-4.94155
-4.94912
-4.94024
-4.93884
-4.93444
-4.93083
-4.90604
-4.79598
-4.79297
-4.77026
-4.8805
-4.7564
-4.86793
-5.07929
-5.27295
-5.13897
-5.02527
-5.11284
-5.11678
-5.1004
-5.10011
-5.11087
-5.11192
-5.10855
-5.14023
-5.18043
-5.29808
-5.20717
-5.20621
-5.08104
-5.11269
-5.13358
-5.36412
-5.43538
-5.24075
-5.45346
-5.29423
-5.32701
-5.29499
-5.30399
-5.28849
-5.28452
-5.29787
-5.29602
-5.28602
-5.30184
-5.22671
-5.08267
-5.21658
-5.1851
-5.18094
-5.41282
-5.36488
-5.60889
-5.43329
-5.45394
-5.33232
-5.40772
-5.29871
-5.40061
-5.4206
-5.29078
-5.43134
-5.46109
-5.52399
-5.57173
-5.71093
-5.45917
-5.45906
-5.58135
-5.88058
-5.5302
-5.75113
-5.72654
-5.59618
-5.90075
-5.53232
-5.91688
-5.55296
-5.55195
-5.89863
-5.52231
-5.56201
-5.72505
-5.79079
-5.77666
-5.66191
-6.1008
-5.79956
-5.71789
-5.89048
-5.76486
-5.74455
-6.00121
-5.70154
-6.0642
-5.73843
-6.045
-6.04203
-5.83178
-6.04781
-6.03437
-5.85078
-5.81487
-5.84665
-6.13694
-5.84491
-6.08374
)
;

boundaryField
{
    leftWall
    {
        type            calculated;
        value           nonuniform List<scalar> 
50
(
2382.15
2378.66
2395.68
2458.86
2477.27
2449.67
2413.3
2361.69
2301.48
2205.88
2129.61
1903.99
1490.83
1133.71
892.49
707.865
543.742
287.864
171.245
145.651
136.825
139.027
137.658
145.594
142.853
136.737
126.947
99.547
74.5039
25.9312
10.9955
3.69232
-10.2292
-17.9737
-21.4433
0.228846
14.7756
5.4169
-1.7688
2.34917
4.54372
1.71391
0.990224
2.47233
0.268484
-2.88465
-8.23395
-11.7851
-11.5823
-13.9565
)
;
    }
    rightWall
    {
        type            calculated;
        value           nonuniform List<scalar> 
50
(
2231.14
2229.17
2205.57
2176.55
2169.06
2130.06
2112.12
2096.21
1973.76
1935.75
1933.49
1938.76
1845.91
1603.94
555.806
73.7962
9.46583
3.42934
1.94612
1.22097
0.255738
-0.292685
-0.681261
-1.08019
-1.34764
-1.56532
-1.75053
-1.92219
-2.15135
-2.29284
-2.44936
-2.62694
-2.79786
-2.95881
-3.18558
-3.37305
-3.52861
-3.69854
-3.88418
-3.84682
-4.4356
-4.4997
-4.67397
-4.77871
-4.86793
-5.13358
-5.18094
-5.58135
-5.79956
-6.08374
)
;
    }
    lowerWall
    {
        type            calculated;
        value           nonuniform List<scalar> 
62
(
2401.06
2266.6
2160.24
2097.42
1814.53
1952.07
2039.76
2030.8
1665.38
991.037
1014.3
967.309
996.994
991.552
973.588
964.169
948.089
935.066
925.758
917.323
916.885
970.889
1948.01
1928.65
888.376
769.762
704.031
650.391
589.637
580.655
975.328
2106.28
2117.77
1942.7
1795.15
2776.57
2721.69
2526.74
2454.06
2343.86
2184.37
2100.79
1807.67
2793.58
2792.11
2659.66
2255.44
2308.59
2264.17
2266.42
2010.7
2043.66
2105.39
1989.47
2153.23
2186.74
2177.76
2236.6
2232.08
2238.35
2170.1
2250.25
)
;
    }
    atmosphere
    {
        type            calculated;
        value           nonuniform List<scalar> 
46
(
-29.0796
-35.3833
-25.3676
-19.152
-15.3032
-12.0833
-8.35026
-6.18024
-5.88682
-5.82549
-5.79332
-5.80267
-5.81992
-5.82997
-5.83976
-5.83111
-5.86224
-5.86094
-5.85191
-5.85584
-5.88138
-5.89637
-5.82915
-5.87685
-5.86465
-5.87044
-5.85957
-5.91423
-5.87342
-5.89389
-5.88475
-5.94571
-5.95583
-5.96993
-5.99051
-5.96909
-5.97157
-6.03544
-5.96831
-5.98406
-5.95755
-5.96872
-5.98082
-6.08026
-6.13552
-6.29095
)
;
    }
    defaultFaces
    {
        type            empty;
    }
}


// ************************************************************************* //
