/*--------------------------------*- C++ -*----------------------------------*\
| =========                 |                                                 |
| \\      /  F ield         | foam-extend: Open Source CFD                    |
|  \\    /   O peration     | Version:     4.1                                |
|   \\  /    A nd           | Web:         http://www.foam-extend.org         |
|    \\/     M anipulation  |                                                 |
\*---------------------------------------------------------------------------*/
FoamFile
{
    version     2.0;
    format      ascii;
    class       volScalarField;
    location    "0.95";
    object      pd;
}
// * * * * * * * * * * * * * * * * * * * * * * * * * * * * * * * * * * * * * //

dimensions      [1 -1 -2 0 0 0 0];

internalField   nonuniform List<scalar> 
2268
(
2401.06
2266.6
2160.24
2097.42
1814.53
1952.07
2039.76
2030.8
1665.38
991.037
1014.3
967.309
996.994
991.552
973.588
964.169
948.089
935.066
925.758
917.323
916.885
970.889
1948.01
2434.45
2271.25
2191.96
1794.5
1427.63
1515.39
1393.77
1246.07
1068.33
1001.83
1026.05
955.385
991.996
982.901
970.533
965.209
948.225
933.176
925.091
918.07
915.131
919.049
972.048
2485.71
2377.57
2346
1884.06
1731.88
1728.2
1503.44
1579.66
1689.03
1542.59
1019.14
967.368
980.643
1054.75
982.288
964.403
950.575
931.65
920.716
914.459
916.109
915.933
915.206
2576.84
2608.36
2624.23
2385.76
1847.15
1668.14
1353.54
1251.37
1086.02
1047.75
1012.47
1014.58
1176.1
1729.15
983.244
963.594
947.058
928.534
920.038
911.956
914.183
916.223
908.454
2616.43
2572.4
2560.99
1916.09
1699.28
1662.15
1400.43
1117
983.065
1071.76
1030.48
1362.11
1761.22
2159.55
1151.46
980.854
964.782
922.521
914.875
909.523
914.682
915.423
913.016
2614.99
2515.68
2545.29
2239.83
1986.53
2282.51
2264.88
1821.69
1446.02
1215.67
1071.84
1769.28
1868.71
2268.01
1361.9
1071.73
1035.23
935.745
913.092
915.988
913.956
920.4
908.795
2606.57
2571.78
2524.48
2401.34
2285.1
2505.85
2392.19
2250.8
2119.87
1894.25
1449.09
2299.59
1925.53
2232.15
1519.94
1320.83
1625.93
1220.68
1083.69
937.036
929.244
937.708
946.427
2581.24
2524.28
2505.69
2459.02
2377.84
2410.87
2473.65
2445.04
2523.64
2560.22
2193.65
2549.01
2278.3
2217.7
2009.54
1980.27
2290.48
1935.64
1698.16
1588.77
1245.71
1129.07
1344.95
2793.58
2792.11
2659.66
2255.44
2308.59
2264.17
2266.42
2010.7
2043.66
2105.39
1989.47
2153.23
2186.74
2177.76
2236.6
2232.08
2238.35
2170.1
2250.25
2773.07
2797.55
2675.63
2236.76
2443.76
2493.17
2366.54
2238
2156.41
2284.05
2285.29
2196.86
2438.61
2383.26
2440.19
2382.9
2395.62
2261.37
2285.38
2612.94
2771.37
2694.91
2391.57
2519.94
2479.9
2394.52
2334.04
2383.35
2404.83
2295.24
2308.15
2331.75
2156.29
2405.21
2448.32
2491.47
2313.52
2298.44
2575.98
2675.13
2643.37
2424.21
2422.81
2329.23
2121.08
1987.63
2078.63
2030.38
1960.09
1994.27
2083.47
2169.08
2331.53
2383.8
2448.64
2412.35
2305.18
2501.47
2653.79
2645.55
2411.6
2452.12
2234.86
2089.07
1951.72
1858.42
1804.68
1792.32
2098.28
1954.31
2164.74
2299.28
2353.88
2440.71
2442.8
2333.03
2378.01
2498.71
2571.62
2408.55
2294.2
2037.13
1936.29
2009.15
2009.76
2023.62
1817.49
2332.63
2229.81
2230.94
2299.22
2293.6
2423.21
2453.41
2330.59
2328.47
2361.54
2455.22
2181.29
2021.7
1712.4
1749.44
1559.07
2063.41
2256.34
2105.42
2311.21
2327.58
2288.62
2291.82
2267.46
2367.54
2449.03
2346.99
2067.05
2170.51
2084.89
1812.28
1757.06
1769.74
2080.22
1851.07
2310.89
2403.31
2220.13
2295.87
2329.9
2275.54
2240.07
2225.54
2317.67
2437.58
2364.43
2542.66
2210.52
2299.34
2287
2434.25
2534.77
2526.33
2582.29
2540
2562.09
2591.93
2576.17
2504.44
2397.12
2439.43
2502.16
2482.26
2405.52
2398.17
2329.63
2130.2
2136.22
2435.01
2494.31
1705.76
1432.48
1903.56
2226.89
2352.34
2471.58
2609.54
2493.76
2516.87
2639.25
2551.5
2412.51
2661.43
2594.77
2579.79
2534.99
2495.3
2493.18
2437.23
2394.51
2240.94
2494.12
2461.04
1510.34
1283.73
1638.88
2066.04
2213.84
1884.41
2414.18
2461.32
2544.43
2690.43
2607.1
2579.6
2642.76
2560.79
2582.3
2552.65
2524.73
2442.45
2448.58
2506.17
2465.38
2426.62
2238.37
1374.66
1347.25
1535.72
1916.66
2228.41
2265.19
2304.19
2412.72
2637.33
2676.06
2594.96
2576.84
2645.31
2594.55
2565.29
2641.33
2406.17
2282.21
2550.07
2579.51
2581.63
2323.93
1781.47
1408.98
1448.06
1434.79
1654.87
1988.63
1890.65
1882.56
2546.94
2668.13
2657.06
2678.28
2609.72
2643.61
2436.82
2527.05
2660.39
2707.22
2369.7
2447.08
2550.25
2223.41
1628.53
1397.4
1304.88
1308.51
1279.31
1246.84
1563.31
1303.77
1503.87
2372.14
2588.62
2475.62
2560.31
2274.24
2129.5
2160.62
2491.76
2416.96
2246.96
2074.96
1952.15
1695.55
1533.42
1488.91
1132.37
1050.04
885.897
1019.93
732.007
958.469
967.958
1542.6
2015.37
2052.19
2096
2117.37
1754.17
1728.6
1872.02
1981.52
1721.1
1490.98
1414.28
1426.24
1397.44
1421.19
1558.32
931.368
732.085
435.948
511.393
425.026
635.579
719.287
1301.84
1592.09
1762.18
1659.61
1427.31
1279.09
1266.59
1275.76
1306.25
1224
1122.03
1065.81
1092.15
1220.67
1344.21
1406.65
740.409
573.233
323.035
268.834
265.627
390.552
482.905
770.774
1271.37
1502.15
1298.26
987.32
830.474
897.018
1004.73
1007.82
1030.65
1002.3
987.065
1110.95
1264.72
1324
1302.72
417.565
314.099
245.516
208.636
230.101
270.688
278.238
327.566
683.612
1218.98
1284.54
918.379
712.428
889.709
847.601
836.722
902.809
898.844
915.801
956.674
962.084
900.672
696.168
234.335
200.798
202.1
166.323
181.806
183.998
170.228
180.14
276.716
695.396
1046.66
863.266
683.327
684.581
679.901
652.467
762.952
798.785
749.145
822.498
883.907
689.547
334.344
181.911
174.793
159.246
149.686
163.21
161.216
166.73
175.393
263.308
505.126
798.538
738.869
577.219
639.669
653.352
703.875
729.54
778.503
777.557
738.874
614.518
258.719
86.7289
163.238
156.117
151.705
156.919
163.901
165.541
170.752
186.658
305.571
466.696
573.797
569.712
445.464
498.736
609.907
686.728
696.657
723.147
674.298
525.457
223.1
57.6743
18.2196
164.6
170.406
173.301
180.429
198.55
196.544
229.776
246.199
360.505
412.87
425.919
438.025
491.399
584.568
635.734
659.097
653.749
602.718
397.071
150.041
33.6528
10.535
5.3655
161.42
177.124
190.47
217.155
233.373
246.883
278.498
320.189
358.654
400.026
432.91
471.835
603.066
600.928
609.381
586.323
527.254
317.278
78.7464
20.8017
5.97632
3.36575
2.09048
174.108
205.342
252.827
292.761
321.067
324.048
339.797
413.142
387.694
442.965
437.449
468.002
569.541
590.29
569.23
450.952
266.683
70.5953
13.411
5.38219
3.03919
2.526
1.6365
175.272
226.693
242.295
274.528
301.067
312.825
335.169
379.142
436.096
454.711
427.056
441.607
493.624
429.245
312.806
131.643
36.9408
9.23058
4.5512
3.18931
2.56202
1.9835
1.34754
170.846
229.4
246.498
263.538
316.491
311.374
336.71
318.069
356.796
361.972
346.04
307.982
219.346
172.1
65.6535
15.9131
6.0209
4.07706
2.73107
2.27596
1.9718
1.86634
1.06265
162.748
212.681
245.692
256.726
230.996
261.836
300.732
252.85
239.754
176.522
140.786
102.91
52.4931
35.3985
10.1384
4.73631
3.76496
3.39298
1.73556
1.37368
1.15778
1.35221
1.08279
134.185
179.667
214.426
235.405
219.765
221.626
186.446
130.343
97.3527
54.4834
45.1854
31.2102
19.0284
11.0527
4.88227
3.49774
2.06067
1.77826
0.972223
0.908572
0.826153
0.884581
0.80506
110.004
168.249
166.33
178.788
179.505
168.107
107.509
54.1805
32.6427
22.5477
19.3297
14.2932
9.92633
6.38374
3.28011
1.5882
1.09453
1.15855
0.898149
0.837801
0.818151
0.781947
0.862
61.1989
94.6147
117.774
126.172
124.311
115.741
78.8527
39.8237
21.6346
13.2171
11.4571
9.89239
7.10756
3.42354
1.79086
1.0813
0.832225
0.811018
0.868154
0.681872
0.657811
0.604327
0.492565
45.1896
61.9781
84.6082
100.165
91.632
90.4983
67.8539
39.6684
19.6042
9.86474
7.49443
4.74981
3.22652
1.47471
1.03687
0.672884
0.658524
0.634054
0.572084
0.686609
0.761231
0.655106
0.633549
36.0177
51.1797
73.8345
72.6267
81.7397
79.1589
52.4464
30.8904
13.709
5.9398
4.68921
3.16255
2.1765
1.25858
0.745361
0.56144
0.516037
0.458425
0.440021
0.333574
0.321394
0.363876
0.44146
19.2859
41.4547
58.3091
57.6297
65.6865
60.4144
49.2214
20.2528
8.14027
4.1156
3.48458
3.10813
3.07522
1.22641
0.438483
0.296323
0.323424
0.221478
0.229439
0.293813
0.407331
0.402935
0.473895
7.48147
26.0579
38.174
45.0047
53.9189
50.5089
40.2762
19.7953
9.48336
5.8185
4.31236
6.33435
3.23976
0.728248
0.143489
0.210826
0.296102
0.332312
0.295183
0.0995199
0.249237
0.305276
0.308607
0.752922
21.1828
26.9645
36.6905
56.168
55.9873
47.5741
22.1705
13.9628
10.4456
9.3221
3.90681
0.542029
-0.119583
-0.0785241
0.271381
-0.0572063
0.0341432
0.257925
0.236066
0.0838213
0.274537
0.370016
19.54
23.994
22.0635
29.8591
50.5392
52.012
44.2866
18.697
12.0121
10.2419
8.61726
0.0725061
-0.450587
-0.252391
-0.237869
-0.392042
-0.342335
-0.175027
-0.127095
0.0359167
0.239403
0.290838
0.11024
31.9047
24.5254
19.2065
27.1145
48.5513
49.7416
35.3498
8.76117
3.64773
1.57257
-0.520176
-0.234086
-0.269635
-0.334564
-0.404301
-0.464574
-0.0935629
-0.195111
-0.209378
-0.0811712
0.0940725
-0.0584273
-0.0704613
21.4295
21.6575
19.5217
28.6232
49.1198
49.2025
26.5171
2.08468
0.585343
-0.314018
-0.389829
-0.700728
-0.687392
-0.649201
-0.435125
-0.295891
-0.24349
-0.305452
-0.0111752
-0.134105
0.0803732
-0.106318
0.176308
14.1037
17.3542
20.4229
30.6876
47.6637
47.3073
18.1211
1.52224
-0.129384
-0.610257
-0.76096
-0.995194
-0.885753
-0.734192
-0.471603
-0.434968
-0.243527
-0.0730362
-0.121972
-0.0652731
0.0382879
0.212229
0.092802
18.6742
19.4281
23.3064
32.5012
46.4866
45.3067
14.9845
1.35078
0.143769
-0.466705
-1.10589
-1.23631
-0.845414
-0.901544
-0.946249
-0.52225
-0.350745
-0.26881
-0.170352
-0.127126
-0.0831454
-0.160925
0.018611
21.69
21.2032
27.5986
35.3348
46.2996
44.2949
15.455
1.49656
0.760598
-1.21483
-1.65062
-1.42597
-1.06701
-0.828886
-0.504544
-1.04532
-0.365414
-0.234766
-0.201458
-0.135615
-0.108443
-0.150231
-0.0825397
20.6423
24.0616
31.2447
37.5013
45.225
44.7783
19.0911
3.90287
2.00143
-1.20347
-1.22477
-1.67953
-1.28277
-1.34702
-0.808406
-0.539338
-0.526404
-0.643671
-0.177368
-0.154257
-0.113812
0.0875398
-0.0269021
23.0767
32.4803
36.3806
39.3647
42.7205
43.5439
27.2836
13.07
6.65396
0.202848
-1.64805
-1.61437
-1.26057
-1.05225
-0.786695
-0.685162
-0.508534
-0.239959
-0.567854
-0.100042
-0.0693868
-0.0466746
-0.0179362
27.064
40.1417
40.8829
42.1988
41.1865
40.5171
30.1599
16.1876
2.01764
-1.56125
-1.3364
-1.40263
-1.05234
-0.975807
-0.752421
-0.561465
-0.46438
-0.407216
-0.100549
-0.22698
-0.277789
0.017106
-0.208697
26.7465
42.962
43.2193
41.9009
36.5396
33.9294
30.6976
16.6833
5.70949
1.24343
-0.38776
-0.845896
-1.11077
-0.51002
-0.551642
-0.409507
-0.422034
-0.279249
-0.207332
-0.128927
-0.261542
-0.189326
-0.23825
25.0264
40.0523
39.8214
36.5784
30.2709
23.5643
15.5729
10.044
2.34462
-0.155225
-0.944145
-0.859641
-0.644115
-0.771655
-0.842854
-0.369891
-0.328506
-0.323671
-0.155073
-0.365562
-0.000570154
-0.198414
-0.0235158
20.4516
35.993
35.2251
28.8141
11.2832
13.2026
7.98065
5.77034
2.03833
0.321908
-0.663493
-0.448923
-0.757074
-0.329161
-0.40997
-0.514699
-0.335338
-0.499985
-0.140522
-0.273398
-0.180818
-0.159454
-0.0179353
17.3731
31.3338
27.7924
20.8767
4.86299
9.06331
4.62429
3.23438
0.735511
-0.151144
-0.3478
-0.533757
-0.204573
-0.399021
-0.525229
-0.251004
-0.275651
-0.0682139
-0.34638
-0.0117746
-0.136158
-0.0386855
-0.168516
17.7
27.2989
17.0314
11.7327
4.33628
6.76487
5.70917
2.14295
0.563812
-0.0772557
-0.275218
-0.294944
-0.335823
-0.17656
-0.0870741
-0.17692
-0.10052
-0.0900396
-0.155465
-0.0574602
-0.0909954
-0.336796
-0.120399
14.8054
15.974
11.4258
7.99454
2.53525
3.18872
1.57612
0.153913
-0.0808507
-0.0507637
-0.20071
-0.106771
-0.183901
-0.235571
-0.375006
-0.148595
-0.310766
-0.280813
-0.167404
-0.248395
-0.24025
-0.0968672
-0.107573
2346.81
2360.56
2187.13
2040.52
2446.17
2467.68
2424.91
2386.13
2458.51
2492.62
2530.22
2517.87
2331.98
2147.13
2144.58
1984.89
1485.7
1458.28
1601.8
1711.37
1626.18
1696.61
1779.68
1888.43
1640.43
1690.66
1743.29
1776.44
1464.54
1483.56
1502.63
1532.28
1273.2
1245.84
1215.63
1202.18
547.96
492.943
440.041
422.528
174.671
140.433
114.382
106.192
49.2294
36.2662
30.8058
30.7371
9.69222
7.32513
7.45464
8.44026
3.4667
2.60945
2.44667
2.49261
1.45628
1.3371
1.27618
1.23739
1.34383
1.25868
1.15523
1.15454
0.998668
0.936445
0.852754
0.873836
0.876162
0.857467
0.853462
0.85516
0.968161
0.918602
0.920567
0.847869
0.775747
0.846911
0.862203
0.857232
0.828419
0.802044
0.771932
0.745244
0.560783
0.617782
0.638692
0.660874
0.501285
0.495131
0.545823
0.458387
0.475579
0.404081
0.426837
0.449481
0.510239
0.528764
0.479718
0.396513
0.310265
0.288957
0.329245
0.40753
0.395424
0.389714
0.418148
0.409226
0.118334
0.14781
0.1532
0.151844
0.12969
0.139664
0.162538
0.191783
0.105659
0.0716518
0.0693755
0.0921591
0.0894704
0.129881
0.19819
0.218151
0.0648813
0.0987208
0.1068
0.110562
-0.0514956
-0.0918797
-0.00522527
0.0415493
0.153194
0.123244
0.0946834
0.0873067
-0.0827308
-0.0838211
-0.00168984
0.0575315
0.072299
0.0198359
-0.0767672
0.01239
-0.165341
-0.18602
-0.0381648
-0.081875
-0.145653
-0.14161
-0.109122
-0.195245
0.00321954
0.000499572
-0.00676673
0.0448965
-0.0370454
-0.0945289
-0.0968046
-0.154866
-0.199573
-0.0954597
-0.101679
-0.0190093
-0.147056
-0.182195
-0.176235
-0.187957
2522.4
2158.03
1901.92
1832.92
1777.74
2085.81
2307.96
2301.29
2425.12
2442.32
2442.36
2395.61
2249.73
2210.38
2139.95
2084.98
2296.46
2453.48
2308.44
2526.12
2398.26
2331.19
2523.56
2404.83
2487.31
2489.23
2363.08
2349.85
2448.06
2444.19
2265.46
2159.01
2101.92
1949.81
1925.9
2220.12
2459.59
2342.33
2457.84
2241.03
2364.42
2497.93
2356.46
2340.15
2332.99
2230.08
2428.59
2375.5
2333.65
2154.01
2108.29
1889.63
1860.31
2259.3
2449.98
2406.2
2399.07
1739.82
1617.02
1892.43
2069.23
1516.1
2192.68
2350.53
2464.31
2436.08
2388.14
2255.27
2034.2
1944.68
1719.05
1997.15
2293.72
2460.21
2413.59
2440.78
1845.16
1972.23
2125.67
2293.95
2413.73
2548.97
2458.69
2420.62
2420.49
2318.38
2107.96
1951.76
1766.86
1838.41
2337.27
2369.31
2420.68
2457.17
2410.97
2007
2133.48
2230.76
2322.93
2353.99
2371.56
2339.07
2290.77
2092.84
1992.65
2157.86
2044.88
2035
2027.99
2109.3
2155.42
2114.69
2336.67
2062.29
1841.66
1857.14
1943.87
1953.75
1874.55
1788.51
1644.6
1535.01
1530.86
1595.92
1930.62
2137.38
2211.53
2086.56
1894.38
1417.63
1121.46
1767.32
769.801
1440.38
1465.7
1535.84
1383.8
1241.23
1008.76
777.57
585.175
514.907
454.273
664.376
1218.81
1580.09
1819.62
946.762
429.84
254.969
522.673
146.294
1152.07
1088.25
1024.53
811.396
657.272
468.363
367.029
210.098
141.765
107.82
185.139
380.619
381.491
527.519
224.453
66.7991
45.7312
82.1973
32.569
395.494
460.975
428.422
319.471
239.942
134.235
126.371
75.015
48.2273
32.1968
59.8953
88.1361
73.4847
84.8818
50.519
22.0914
17.6193
19.822
12.4091
99.2687
105.766
85.5368
112.406
70.0759
44.2071
43.6326
23.5841
17.7784
10.8458
17.0633
23.2343
21.5095
23.9262
14.3841
10.3484
8.60021
7.79655
6.83081
36.6458
29.0077
24.3962
29.7869
20.3245
13.9419
12.8638
7.55925
6.91382
5.30655
7.59207
8.56993
11.2785
11.8925
9.60692
7.08038
5.49032
5.01097
5.20233
9.86828
7.88752
8.38685
7.90557
7.66157
5.19561
4.89347
3.19719
2.95683
2.40254
4.01032
4.66889
7.55422
8.05132
7.65509
5.43939
3.9944
3.38407
4.08959
2.60309
2.0342
2.33219
2.77545
2.51647
1.85329
1.83414
1.73334
1.81894
1.73459
1.76367
2.80639
4.99475
5.63711
4.96078
4.28003
2.91844
2.27085
3.51386
1.20859
1.22469
1.38904
1.51519
1.30557
1.39772
1.32013
1.14406
1.45027
1.25493
1.60082
2.40525
3.57536
3.98292
3.49371
3.76992
2.30384
1.73071
3.1247
1.06198
0.988876
0.910572
0.92826
0.931121
0.821551
1.01101
0.89298
1.06915
1.04167
1.06331
0.969937
1.03585
1.57407
1.78309
1.82468
1.61022
1.33084
2.74366
0.899173
0.87784
0.936469
0.908475
0.9762
1.01387
0.861142
1.01373
1.035
1.10804
1.03396
0.98507
0.902062
1.11059
1.02768
1.4491
1.33221
1.18406
2.52552
0.960173
0.816254
0.929834
0.76451
0.840612
0.864724
0.97438
0.899068
0.9331
0.922183
0.944336
0.891425
0.918561
0.821551
1.04575
1.21738
1.13845
1.11361
2.38879
0.802088
0.860649
0.822247
0.924256
0.960861
0.892103
0.83365
0.865539
0.872405
0.892501
0.879275
0.887564
0.875957
0.890307
0.865319
1.0489
1.07225
1.05171
2.30321
0.895288
0.860991
0.897683
0.816586
0.733629
0.789039
0.957699
0.807212
0.932338
0.819219
0.842956
0.818101
0.859788
0.794613
0.914251
0.767066
0.987712
0.985256
2.24013
0.558925
0.766711
0.577167
0.745759
0.565508
0.910647
0.610281
0.813228
0.668072
0.801103
0.759534
0.815852
0.799033
0.780549
0.773901
0.757127
0.833014
0.923674
2.11878
0.700867
0.656343
0.664509
0.660759
0.771333
0.559204
0.583263
0.661518
0.69215
0.617612
0.713497
0.688105
0.756983
0.793472
0.821223
0.903721
0.847422
0.938029
2.09515
0.561324
0.5695
0.576098
0.591623
0.605831
0.510421
0.72157
0.676693
0.653685
0.789381
0.673198
0.738936
0.725526
0.714947
0.772757
0.778622
0.829131
0.889044
2.06594
0.489177
0.485462
0.450461
0.539697
0.58685
0.652434
0.575768
0.591679
0.576688
0.626965
0.630553
0.649257
0.676176
0.65298
0.740816
0.726369
0.790667
0.846823
1.97432
0.459401
0.553103
0.564768
0.514584
0.576661
0.554796
0.75538
0.659601
0.599408
0.620733
0.597807
0.641209
0.676652
0.739421
0.796331
0.863478
0.763935
0.815826
1.88188
0.488415
0.321504
0.614427
0.434538
0.448313
0.455237
0.351198
0.299531
0.476075
0.615507
0.56042
0.508148
0.566241
0.383799
0.695626
0.469191
0.875003
0.694596
1.78982
0.349125
0.206686
0.26858
0.409789
0.550428
0.446072
0.315536
0.567181
0.335038
0.304991
0.550982
0.641048
0.52355
0.392363
0.447697
0.513725
0.471204
0.623616
1.62473
0.25313
0.392767
0.321211
0.365153
0.213054
0.349111
0.503866
0.401465
0.571424
0.387509
0.454543
0.297172
0.450108
0.558192
0.38447
0.426143
0.544287
0.551791
1.4774
0.20409
0.207802
0.112344
0.284477
0.306644
0.332028
0.346379
0.350319
0.370307
0.245313
0.488981
0.417787
0.425339
0.441336
0.5561
0.456008
0.462596
0.513285
1.38082
0.149486
0.248578
0.341368
0.242168
0.137168
0.276454
0.382422
0.483505
0.386163
0.471712
0.163083
0.373266
0.365868
0.609044
0.417207
0.444286
0.429228
0.484963
1.27168
0.188687
0.197542
0.201035
0.247521
0.36584
0.236572
0.282854
0.112927
0.267382
0.281551
0.304712
0.310473
0.264444
0.13071
0.366767
0.376048
0.35817
0.413017
1.15294
0.126561
0.175477
0.185866
0.194889
0.221967
0.206712
0.263908
0.239361
0.252661
0.221082
0.0477606
0.0842569
0.175732
0.172583
0.387227
0.34903
0.317792
0.41899
1.2583
0.0837422
0.125635
0.142067
0.177466
0.217081
0.158562
0.20049
0.0233299
0.19215
0.26663
0.372881
0.390575
0.273206
0.34312
0.0461839
0.255847
0.274619
0.342012
0.741631
0.0761723
0.115612
0.125734
0.147284
0.153887
0.155494
0.208485
0.291555
0.199486
0.191478
0.180602
0.191052
0.160355
0.184421
0.198899
0.187695
0.154414
0.0039217
1.16962
0.132836
0.0575317
0.0864169
0.112875
0.120391
0.12326
0.14291
0.132799
0.140075
0.16706
0.188461
0.191197
0.169157
0.144786
0.0052419
0.096535
-0.0530853
0.0289134
0.708032
-0.0498468
0.16358
0.0776164
0.093306
0.106148
0.116619
0.130796
0.140073
0.134651
0.130214
0.127264
0.12837
0.11384
0.084977
0.244558
-0.0993702
0.277684
-0.111774
0.694097
-0.108715
-0.148458
0.0383187
0.000534198
0.0651665
0.062481
0.0989213
0.0913517
0.100229
0.101633
0.106032
0.10964
0.134489
0.244584
0.247611
0.270339
0.160948
0.285538
0.652599
0.0863745
-0.10729
0.0266977
0.14039
0.0528258
0.0488888
0.065267
0.0655538
0.0547952
0.0537462
0.0571131
0.025431
-0.0146977
-0.132314
-0.0413937
-0.0404134
0.0854789
0.0543925
0.477388
-0.0732621
-0.144518
0.0501105
-0.162598
-0.00336782
-0.0361527
-0.00412871
-0.0131322
0.00236949
0.00633913
-0.00700641
-0.00516208
0.0049254
-0.0108721
0.0642643
0.208316
0.0750036
0.10715
0.346011
0.00323058
0.0511693
-0.192839
-0.0172396
-0.0378847
0.0837301
0.00832959
0.117341
0.0154456
-0.00454203
0.125279
-0.015281
-0.0449436
-0.107828
-0.155561
-0.294748
-0.0423972
-0.0414785
-0.0454983
-0.339327
0.0110477
-0.209884
-0.185293
-0.0549342
-0.359499
0.00893079
-0.375635
-0.0117076
-0.0107003
-0.357385
0.0189437
-0.0206635
-0.183688
-0.249422
-0.235282
-0.119962
-0.55737
0.413784
-0.0514489
-0.224042
-0.0984126
-0.0781058
-0.334768
-0.035093
-0.397761
-0.0719904
-0.378557
-0.375589
-0.165342
-0.381363
-0.367827
-0.184218
-0.148301
-0.180078
-0.469754
-0.176798
0.138479
)
;

boundaryField
{
    leftWall
    {
        type            zeroGradient;
    }
    rightWall
    {
        type            zeroGradient;
    }
    lowerWall
    {
        type            zeroGradient;
    }
    atmosphere
    {
        type            totalPressure;
        rho             rho;
        psi             none;
        gamma           1;
        p0              uniform 0;
        value           nonuniform List<scalar> 
46
(
0
0
0
0
0
0
0
-0.00703502
-0.0646139
-0.0743134
-0.0602939
-0.0733119
-0.0908538
-0.100925
-0.110717
-0.102074
-0.1332
-0.131896
-0.122871
-0.126804
-0.152335
-0.167326
-0.100111
-0.14781
-0.13561
-0.141396
-0.130528
-0.185187
-0.144377
-0.164848
-0.155714
-0.216673
-0.226787
-0.240895
-0.261468
-0.240049
-0.242533
-0.306402
-0.239267
-0.254913
-0.228389
-0.239553
-0.251648
-0.350474
-0.404798
0
)
;
    }
    defaultFaces
    {
        type            empty;
    }
}


// ************************************************************************* //
