/*--------------------------------*- C++ -*----------------------------------*\
| =========                 |                                                 |
| \\      /  F ield         | foam-extend: Open Source CFD                    |
|  \\    /   O peration     | Version:     4.1                                |
|   \\  /    A nd           | Web:         http://www.foam-extend.org         |
|    \\/     M anipulation  |                                                 |
\*---------------------------------------------------------------------------*/
FoamFile
{
    version     2.0;
    format      ascii;
    class       surfaceScalarField;
    location    "0.95";
    object      phi;
}
// * * * * * * * * * * * * * * * * * * * * * * * * * * * * * * * * * * * * * //

dimensions      [0 3 -1 0 0 0 0];

internalField   nonuniform List<scalar> 
4432
(
-7.79608e-06
7.79608e-06
-3.77343e-05
2.99382e-05
-4.86303e-05
1.0896e-05
-4.6611e-05
-2.01932e-06
-2.15564e-05
-2.50546e-05
-6.38679e-06
-1.51696e-05
-1.98058e-05
1.3419e-05
-1.74822e-05
-2.32362e-06
-4.8754e-06
-1.26068e-05
-2.13231e-05
1.64477e-05
-2.1488e-05
1.64842e-07
-2.20001e-05
5.12162e-07
-1.61314e-05
-5.86877e-06
-3.71667e-06
-1.24147e-05
-2.30671e-06
-1.40996e-06
1.43908e-07
-2.45062e-06
3.09596e-06
-2.95205e-06
6.70695e-07
2.42527e-06
-1.19454e-06
1.86524e-06
-2.04206e-06
8.47516e-07
1.20595e-07
-2.16265e-06
-1.67408e-06
1.79467e-06
-1.67408e-06
-1.1608e-05
1.94041e-05
-2.5755e-05
4.40852e-05
-3.11083e-05
1.62492e-05
-6.07989e-05
2.76713e-05
-7.01974e-05
-1.56561e-05
-6.70413e-05
-1.83257e-05
-3.99511e-05
-1.36711e-05
-3.15765e-05
-1.06982e-05
-4.27039e-05
-1.4794e-06
-1.75676e-05
-8.68853e-06
-2.63542e-05
8.95142e-06
-1.33608e-05
-1.24812e-05
-1.93235e-05
9.39367e-08
-9.91694e-06
-2.18213e-05
-4.69515e-06
-6.63175e-06
-2.56325e-07
-6.88944e-06
1.18759e-06
-4.39597e-06
3.07508e-06
5.3778e-07
2.00974e-06
2.93058e-06
1.42967e-06
1.42758e-06
1.4627e-06
-2.19568e-06
2.23048e-06
1.0269e-06
5.56402e-07
-2.63348e-05
4.57389e-05
-2.40909e-05
4.18414e-05
-5.48449e-05
4.70032e-05
-6.06489e-05
3.34753e-05
-6.11978e-05
-1.51072e-05
-5.73789e-05
-2.21445e-05
-3.4941e-05
-3.61091e-05
-2.12197e-05
-2.44195e-05
-1.8887e-05
-3.81204e-06
-1.91079e-05
-8.46764e-06
-2.81371e-05
1.79806e-05
-1.92902e-05
-2.13282e-05
-1.50895e-05
-4.1068e-06
-1.18308e-05
-2.50799e-05
-2.5755e-06
-1.58871e-05
-1.3265e-06
-8.13844e-06
1.97616e-06
-7.69862e-06
1.68012e-06
8.33819e-07
2.22626e-06
2.38444e-06
3.34742e-06
3.06417e-07
1.25749e-06
-1.05749e-07
5.18914e-07
1.76548e-06
1.07532e-06
-1.25165e-05
5.82554e-05
-1.77257e-05
4.70505e-05
-3.84216e-05
6.76991e-05
-2.71653e-05
2.2219e-05
-6.14245e-05
1.91519e-05
-6.40919e-05
-1.94771e-05
-4.1508e-05
-5.8693e-05
-3.46034e-05
-3.13241e-05
-2.52946e-05
-1.31209e-05
-3.34227e-05
-3.39567e-07
-3.25059e-05
1.70638e-05
-3.61602e-05
-1.76738e-05
-2.43823e-05
-1.58847e-05
-3.80878e-06
-4.56535e-05
-3.61103e-06
-1.60848e-05
-5.83141e-06
-5.91807e-06
-5.71606e-07
-1.29584e-05
1.7766e-06
-1.51438e-06
2.08273e-06
2.0783e-06
3.11345e-06
-7.24296e-07
1.47518e-06
1.53251e-06
9.79498e-07
2.26116e-06
2.05481e-06
-1.15494e-05
6.98048e-05
-3.14939e-05
6.6995e-05
-4.5027e-05
8.12323e-05
-6.41559e-05
4.13479e-05
-6.63914e-05
2.13875e-05
-6.1707e-05
-2.41615e-05
-7.25405e-05
-4.78594e-05
-6.64292e-05
-3.74354e-05
-5.23734e-05
-2.71766e-05
-3.86471e-05
-1.40658e-05
-3.96695e-05
1.80863e-05
-3.44944e-05
-2.28489e-05
-9.08645e-06
-4.12927e-05
-9.34959e-07
-5.38049e-05
-1.12121e-06
-1.58986e-05
-4.51567e-06
-2.5236e-06
-4.66428e-07
-1.70077e-05
8.9114e-07
-2.87195e-06
1.30873e-06
1.66071e-06
5.02322e-07
8.21135e-08
-4.44221e-07
2.47906e-06
-1.7147e-06
3.53164e-06
3.40113e-07
-7.84054e-06
7.76453e-05
-3.16105e-05
9.0765e-05
-4.00777e-05
8.96995e-05
-5.13909e-05
5.2661e-05
-5.76643e-05
2.76608e-05
-5.22035e-05
-2.96223e-05
-3.12563e-05
-6.88066e-05
-3.58146e-05
-3.28772e-05
-2.92806e-05
-3.37107e-05
-3.71518e-05
-6.19456e-06
-2.46344e-05
5.56879e-06
-1.81828e-05
-2.93005e-05
-2.21699e-05
-3.73056e-05
-5.35627e-06
-7.06186e-05
-3.00884e-06
-1.8246e-05
-5.56661e-06
3.41684e-08
-1.35496e-06
-2.12193e-05
4.35538e-07
-4.66245e-06
1.86866e-06
2.27588e-07
1.9464e-06
4.37657e-09
1.21765e-06
3.20781e-06
-1.65971e-07
4.91526e-06
1.74142e-07
-1.22714e-05
8.99168e-05
-2.17095e-05
0.000100203
-3.55119e-05
0.000103502
-4.72408e-05
6.439e-05
-4.97022e-05
3.01222e-05
-4.59793e-05
-3.33451e-05
-5.03172e-05
-6.44688e-05
-2.91974e-05
-5.39969e-05
-4.66569e-05
-1.62512e-05
-4.21572e-05
-1.06942e-05
-2.87937e-05
-7.79472e-06
-2.06803e-05
-3.74139e-05
-2.80418e-05
-2.9944e-05
-1.05582e-05
-8.81022e-05
-1.31692e-05
-1.56349e-05
-5.3574e-06
-7.77768e-06
2.62024e-07
-2.68387e-05
1.40189e-07
-4.54062e-06
-2.02719e-06
2.39497e-06
-1.11908e-06
-9.03737e-07
-2.02181e-06
4.11054e-06
-5.00353e-06
7.89698e-06
-4.82938e-06
-4.38444e-06
9.43012e-05
-1.03006e-05
0.000106119
-2.79723e-05
0.000121173
-4.39578e-05
8.03756e-05
-5.03129e-05
3.64772e-05
-2.34926e-05
-6.01654e-05
-5.12283e-05
-3.67332e-05
-2.76647e-05
-7.75605e-05
-3.69731e-05
-6.94272e-06
-2.02503e-05
-2.74171e-05
-2.51007e-05
-2.94429e-06
-1.7288e-05
-4.52266e-05
-2.72319e-05
-2.00001e-05
-1.33131e-05
-0.000102021
-9.98354e-06
-1.89645e-05
-1.14247e-06
-1.66187e-05
5.35808e-06
-3.33393e-05
2.28544e-06
-1.46798e-06
-2.93335e-06
7.61377e-06
-3.42643e-06
-4.10659e-07
3.12046e-06
-2.43635e-06
3.45671e-06
7.56074e-06
-1.37268e-06
-5.83812e-05
5.83812e-05
-8.0721e-05
2.23399e-05
-0.00010715
2.6429e-05
-0.000132215
2.50648e-05
-0.000127774
-4.44056e-06
-0.000126696
-1.0782e-06
-0.000129191
2.49449e-06
-8.2548e-05
-4.66426e-05
-7.90792e-05
-3.46876e-06
-7.05275e-05
-8.55166e-06
-7.08286e-05
3.01043e-07
-0.000117679
4.68501e-05
-0.000107368
-1.03104e-05
-9.79784e-05
-9.38992e-06
-8.01812e-05
-1.77971e-05
-6.61059e-05
-1.40753e-05
-2.76006e-05
-3.85052e-05
-2.77569e-05
1.5621e-07
-2.77569e-05
-2.39799e-05
8.23611e-05
-6.49227e-05
6.32827e-05
-9.03871e-05
5.18933e-05
-6.70637e-05
1.74147e-06
-0.000111514
4.00093e-05
-0.000111737
-8.54515e-07
-7.22074e-05
-3.70354e-05
-8.05579e-05
-3.82921e-05
-7.68071e-05
-7.21949e-06
-0.000120464
3.51049e-05
-0.000118614
-1.54845e-06
-6.15498e-05
-1.02143e-05
-8.72964e-05
1.54362e-05
-7.80102e-05
-1.86762e-05
-3.27154e-05
-6.30919e-05
-4.27521e-05
-4.03862e-06
-3.53195e-05
-4.59379e-05
-1.87539e-05
-1.64093e-05
-4.65108e-05
-2.73148e-05
0.000109676
-3.82588e-05
7.42268e-05
-3.00634e-05
4.36979e-05
-5.64104e-05
2.80885e-05
-0.000100757
8.4356e-05
-9.36966e-05
-7.91492e-06
-0.000107173
-2.35595e-05
-0.000121001
-2.44636e-05
-0.000114337
-1.38835e-05
-9.50112e-05
1.5779e-05
-8.55739e-05
-1.09858e-05
-7.75446e-05
-1.82436e-05
-4.64142e-05
-1.56942e-05
-2.24956e-05
-4.25948e-05
-3.11598e-05
-5.44277e-05
-2.488e-05
-1.03184e-05
-1.26457e-05
-5.81722e-05
-7.70053e-06
-2.13545e-05
-5.42113e-05
-2.33748e-05
0.000133051
-4.81738e-05
9.90257e-05
-8.19377e-05
7.74618e-05
-0.000113988
6.01389e-05
-5.89125e-05
2.92803e-05
-9.11116e-05
2.42842e-05
-9.36564e-05
-2.10147e-05
-5.37611e-05
-6.43589e-05
-8.18958e-05
1.42513e-05
-3.56892e-05
-3.04276e-05
-5.73597e-05
1.06848e-05
-3.78324e-05
-3.7771e-05
-4.44147e-06
-4.90851e-05
6.18589e-06
-5.32221e-05
6.85606e-06
-5.50979e-05
1.15191e-05
-1.49815e-05
1.16698e-06
-4.78201e-05
7.63083e-07
-2.09506e-05
-5.34482e-05
-2.76658e-05
0.000160716
-6.00124e-05
0.000131372
-7.93939e-05
9.68434e-05
-5.71207e-05
3.78658e-05
-8.69384e-05
5.9098e-05
-6.56784e-05
3.02418e-06
-3.27525e-05
-5.39406e-05
-6.7899e-05
-2.92124e-05
-2.6308e-05
-2.73397e-05
-3.2253e-05
-2.44827e-05
-1.90211e-05
-2.54712e-06
2.26851e-06
-5.90606e-05
1.14768e-05
-5.82934e-05
2.98122e-05
-7.15576e-05
1.58961e-05
-4.11817e-05
2.33643e-05
-2.24496e-05
1.04503e-05
-3.49062e-05
1.55911e-05
-2.60914e-05
-3.78571e-05
-2.92992e-05
0.000190016
-6.29814e-05
0.000165055
-7.26728e-05
0.000106535
-8.26007e-05
4.77937e-05
-5.92038e-05
3.57012e-05
-3.18761e-05
-2.43036e-05
-3.73672e-05
-4.84495e-05
-3.0944e-05
-3.56355e-05
-1.65989e-05
-4.16849e-05
-4.99394e-06
-3.60876e-05
-1.72306e-06
-5.81799e-06
2.04642e-05
-8.12479e-05
3.48011e-05
-7.26302e-05
3.79976e-05
-7.47541e-05
2.21089e-05
-2.52931e-05
3.87748e-05
-3.91156e-05
1.7373e-05
-1.35043e-05
1.01821e-05
-1.89005e-05
-2.7675e-05
-5.59485e-05
0.000245964
-7.17027e-05
0.000180809
-6.50805e-05
9.99125e-05
-3.60672e-05
1.87804e-05
-2.66711e-05
2.6305e-05
-2.55958e-05
-2.53788e-05
-2.24447e-05
-5.16007e-05
-1.20889e-05
-4.59912e-05
4.22046e-08
-5.3816e-05
8.33385e-06
-4.43792e-05
8.37304e-06
-5.85719e-06
2.91049e-05
-0.00010198
4.12723e-05
-8.47977e-05
4.50602e-05
-7.8542e-05
4.62194e-05
-2.64522e-05
3.86212e-05
-3.15174e-05
1.61568e-05
8.96006e-06
1.01008e-05
-1.28445e-05
-1.75742e-05
-7.07582e-05
0.000316722
-8.8752e-05
0.000198802
-3.5132e-05
4.62925e-05
-4.63039e-05
2.99524e-05
-3.51801e-05
1.51812e-05
-2.46067e-05
-3.59522e-05
-1.04713e-05
-6.57361e-05
-1.04703e-05
-4.59922e-05
6.35287e-07
-6.49217e-05
2.11171e-05
-6.48611e-05
3.10212e-05
-1.57612e-05
3.53151e-05
-0.000106274
2.40787e-05
-7.35613e-05
2.35817e-05
-7.80451e-05
4.60009e-05
-4.88714e-05
3.53938e-05
-2.09102e-05
2.7779e-05
1.65748e-05
1.04312e-05
4.50333e-06
-7.14301e-06
-1.17431e-05
0.000106044
-1.44413e-05
0.000108817
-1.9344e-05
0.000126076
-3.98502e-05
0.000100882
-3.80988e-05
3.47259e-05
-7.93111e-05
-1.8953e-05
-7.14672e-05
-4.45771e-05
-0.000130893
-1.81352e-05
-0.000114459
-2.33765e-05
-9.70646e-05
-4.48112e-05
-4.56859e-05
-5.4323e-05
-2.29206e-05
-6.79919e-05
-1.99359e-05
-2.29848e-05
-6.55875e-05
-5.63694e-05
-4.86326e-05
-3.59194e-05
-2.57646e-05
-3.94868e-05
-1.09413e-05
-4.81626e-05
3.88544e-06
-1.62947e-05
1.96043e-05
-8.10508e-06
2.90045e-05
-9.81088e-06
2.14992e-05
5.06894e-06
-3.53102e-05
6.43702e-05
3.86451e-05
-7.5328e-05
-2.65514e-06
0.000108699
-4.82445e-06
0.000110987
-9.57595e-06
0.000130828
-7.68993e-06
9.89957e-05
-1.76414e-06
2.88001e-05
-7.26931e-06
-1.34479e-05
-4.55768e-05
-6.2696e-06
-6.79895e-05
4.27748e-06
-6.76332e-05
-2.37328e-05
-9.94499e-05
-1.29944e-05
-9.71057e-05
-5.66673e-05
-0.0001147
-5.03973e-05
-8.08556e-05
-5.68295e-05
-0.000110517
-2.67082e-05
-0.000101812
-4.46239e-05
-0.000114621
-2.66781e-05
-0.000118875
-4.39087e-05
-0.000120386
-1.47836e-05
-0.000126635
-1.85588e-06
-0.000132299
-4.14718e-06
-0.000156174
2.89441e-05
-0.000118495
2.66914e-05
9.84831e-05
-0.000178333
5.10615e-06
0.000103593
-4.44993e-06
0.000120543
2.12872e-05
0.000105091
1.95032e-05
0.00010078
2.19764e-06
4.61057e-05
-9.31092e-06
-1.93929e-06
-2.10408e-05
5.46031e-06
-4.27176e-05
2.59543e-05
-5.79869e-05
-8.46359e-06
-6.4918e-05
-6.06332e-06
-0.000112807
-8.77779e-06
-0.000126614
-3.65902e-05
-0.000146188
-3.72559e-05
-0.000149242
-2.36545e-05
-0.000169183
-2.46826e-05
-0.000168235
-2.7626e-05
-0.000175848
-3.62957e-05
-0.000198886
8.25434e-06
-0.00022126
2.05182e-05
-0.000219598
-5.80965e-06
-0.000213707
2.30531e-05
-0.000218214
3.11989e-05
9.74833e-05
-0.000217215
-5.59184e-07
0.000104153
-3.8638e-06
0.000123847
-3.28687e-06
0.000104514
-1.50872e-07
9.76437e-05
-2.5291e-05
7.12458e-05
-5.08468e-05
2.36165e-05
-6.92971e-05
2.39107e-05
-8.79987e-05
4.46559e-05
-0.000101245
4.78264e-06
-0.000123403
1.60947e-05
-0.000140229
8.04869e-06
-0.000154335
-2.24848e-05
-0.000168153
-2.34381e-05
-0.000159439
-3.23677e-05
-0.000166811
-1.73108e-05
-0.000169596
-2.48412e-05
-0.000169336
-3.65557e-05
-0.000124848
-3.62333e-05
-0.000136015
3.16845e-05
-0.000194877
5.30529e-05
-0.000195029
2.32048e-05
-0.000225972
6.21419e-05
3.07333e-05
-0.000159222
-3.43546e-05
0.000138507
-1.67911e-06
9.1172e-05
5.58785e-06
9.72467e-05
-4.92081e-06
0.000108152
-4.7605e-05
0.00011393
-8.8183e-05
6.41945e-05
-0.000110087
4.58147e-05
-8.46518e-05
1.92206e-05
-0.000116628
3.67592e-05
-0.000128492
2.79586e-05
-0.000155654
3.52102e-05
-0.000149079
-2.90595e-05
-0.00014653
-2.59868e-05
-0.000161896
-1.70019e-05
-0.000121137
-5.80702e-05
-0.000107284
-3.86938e-05
-0.000141292
-2.5475e-06
-0.000168734
-8.79193e-06
-0.000143572
6.52252e-06
-0.00013731
4.67908e-05
-0.000210477
9.63724e-05
-0.000217422
6.90868e-05
5.59937e-05
-0.000242683
-1.4299e-05
0.000152806
-1.57837e-05
9.26566e-05
-1.84313e-05
9.98943e-05
-3.59235e-05
0.000125645
-2.53174e-05
0.000103324
-4.37913e-05
8.26684e-05
-3.83973e-05
4.04207e-05
-6.42036e-05
4.50269e-05
-0.000107392
7.9948e-05
-0.000119121
3.96872e-05
-8.65283e-05
2.61746e-06
-0.000112568
-3.01966e-06
-0.000115011
-2.3544e-05
-8.26461e-05
-4.93669e-05
-0.000105842
-3.48744e-05
-0.000165987
2.14519e-05
-0.000179762
1.12269e-05
-0.000205585
1.70308e-05
-0.000240031
4.0969e-05
-0.000278672
8.54321e-05
-0.000281681
9.93807e-05
-0.00026542
5.28261e-05
4.64657e-05
-0.000255892
5.73124e-06
0.000147075
-1.44836e-05
0.000112871
-2.5423e-05
0.000110834
8.01775e-06
9.2204e-05
-1.4831e-05
0.000126173
-9.20229e-05
0.00015986
-9.86618e-05
4.70595e-05
-0.000111311
5.76761e-05
-0.00010961
7.82473e-05
-8.0573e-05
1.06499e-05
-8.97485e-05
1.1793e-05
-0.000115722
2.29537e-05
-0.000126838
-1.24276e-05
-0.000164104
-1.21011e-05
-0.000192558
-6.42067e-06
-0.000191095
1.9989e-05
-0.00021738
3.7512e-05
-0.000266287
6.59378e-05
-0.000304521
7.92026e-05
-0.000313255
9.41664e-05
-0.0003124
9.85253e-05
-0.0003014
4.18267e-05
2.14498e-05
-0.000276384
1.2632e-05
0.000134443
2.34421e-05
0.000102061
1.46737e-05
0.000119602
-8.2306e-06
0.000115108
-3.04482e-05
0.00014839
-5.01105e-05
0.000179523
-0.00011502
0.000111969
-0.000111168
5.38246e-05
-7.41634e-05
4.12426e-05
-0.000140058
7.65443e-05
-0.000165505
3.72399e-05
-0.000170872
2.83209e-05
-0.000180807
-2.49281e-06
-0.000189411
-3.49702e-06
-0.000199601
3.76977e-06
-0.000224737
4.51244e-05
-0.000259504
7.22794e-05
-0.000294239
0.000100673
-0.000313446
9.84092e-05
-0.000317694
9.84146e-05
-0.000289299
7.01302e-05
-0.000265546
1.80744e-05
-4.81386e-06
-0.000239283
5.01698e-05
8.42731e-05
7.85113e-05
7.372e-05
2.62085e-05
0.000171905
1.45766e-05
0.00012674
-5.81746e-05
0.000221142
-5.32758e-05
0.000174624
-9.4109e-05
0.000152802
-0.000105609
6.53246e-05
-0.000106505
4.21391e-05
-0.000111137
8.1176e-05
-0.000139841
6.59442e-05
-0.00015907
4.7549e-05
-0.000132819
-2.87435e-05
-0.00014904
1.27239e-05
-0.000221771
7.65012e-05
-0.00025546
7.88128e-05
-0.000278304
9.51242e-05
-0.000292197
0.000114566
-0.000310396
0.000116608
-0.000296052
8.40707e-05
-0.000255675
2.97534e-05
-0.000231506
-6.09448e-06
-1.32322e-05
-0.000223088
1.97906e-05
6.44825e-05
2.08488e-05
7.26618e-05
2.54448e-05
0.000167309
-6.05776e-06
0.000158243
-2.51551e-05
0.000240239
-7.63012e-05
0.00022577
-4.41996e-05
0.0001207
-9.23879e-05
0.000113513
-0.000102534
5.22855e-05
-9.13587e-05
7.00004e-05
-9.39584e-05
6.8544e-05
-7.76995e-05
3.12901e-05
-0.000127651
2.12078e-05
-0.000225925
0.000110999
-0.000249744
0.00010032
-0.000280497
0.000109566
-0.000255995
7.06222e-05
-0.000259156
0.000117726
-0.00026536
0.000122812
-0.000249662
6.83727e-05
-0.000219243
-6.65756e-07
-0.000198972
-2.63657e-05
-1.98248e-05
-0.000192379
1.19887e-05
5.24938e-05
-1.63913e-05
0.000101042
2.42404e-05
0.000126677
8.4184e-06
0.000174065
7.62923e-06
0.000241028
1.48838e-05
0.000218516
9.86205e-06
0.000125722
-4.89205e-05
0.000172295
-5.89895e-05
6.23545e-05
-4.95917e-05
6.06026e-05
-6.46085e-05
8.35607e-05
-0.000131148
9.78295e-05
-0.000197103
8.7163e-05
-0.000144137
5.80329e-05
-0.000148361
0.000104544
-0.000153739
0.000114943
-0.000240868
0.000157752
-0.000234884
0.000111742
-0.000157597
4.55247e-05
-0.000130603
4.13784e-05
-0.000158387
2.7119e-05
-0.00016216
-2.25932e-05
-3.49141e-05
-0.000147071
6.93827e-06
4.55556e-05
2.30619e-05
8.49184e-05
3.49618e-05
0.000114778
2.66211e-07
0.00020876
2.70813e-05
0.000214213
3.94409e-05
0.000206156
2.01871e-05
0.000144976
3.93735e-06
0.000188545
-4.18645e-05
0.000108156
-3.67179e-05
5.5456e-05
-6.39586e-05
0.000110801
-9.83714e-05
0.000132242
-0.000132156
0.000120948
-0.000236587
0.000162464
-0.000262496
0.000130452
-0.00024417
9.66172e-05
-0.000242233
0.000155815
-0.000232282
0.000101791
-0.000232335
4.55775e-05
-0.000213455
2.24989e-05
-0.000183346
-2.98987e-06
-0.000162671
-4.32687e-05
-0.000110592
-8.6993e-05
1.67569e-05
2.87988e-05
2.06161e-05
8.10593e-05
-2.03574e-05
0.000155751
-2.81945e-06
0.000191223
3.34289e-05
0.000177965
4.63232e-05
0.000193262
-1.96221e-06
0.000193261
-1.25536e-05
0.000199137
-3.30496e-05
0.000128652
-0.000118435
0.000140841
-0.000157014
0.000149381
-0.000192972
0.0001682
-0.000221328
0.000149304
-0.000158862
9.99975e-05
-0.000135392
0.000106982
-0.00024472
0.000205946
-0.000251482
0.000162577
-0.000208677
5.89857e-05
-0.000191514
2.8415e-05
-0.000158339
-1.06765e-05
-8.71697e-05
-7.4159e-05
-2.21825e-05
-0.000108256
-9.5499e-05
-3.72755e-05
-3.37893e-05
6.25882e-05
-8.02777e-05
0.000127548
-0.000110103
0.000185576
-0.0001093
0.00019042
-5.27177e-05
0.000121383
-7.76463e-05
0.00021819
-9.92659e-05
0.000214881
-0.000103685
0.000203556
-9.50188e-05
0.000119986
-0.000146829
0.000192651
-0.000201617
0.000204168
-0.000222452
0.000189036
-0.000226873
0.000153725
-0.000244464
0.000117588
-0.000252308
0.000114827
-0.000147126
0.000100764
-0.000138547
0.000153998
-0.000183761
0.000104199
-0.00014294
-1.24063e-05
-8.16658e-05
-7.19505e-05
-4.50791e-05
-0.000110746
-4.6877e-05
-0.000106458
-0.000115554
-2.68225e-05
-3.59173e-05
9.85057e-05
-6.2913e-05
0.000154544
-6.84147e-05
0.000191078
-7.67355e-05
0.000198741
-0.000174033
0.000218681
-0.000176029
0.000220186
-0.0001759
0.000214752
-0.000158583
0.000186239
-0.000165322
0.000126726
-0.000190395
0.000217724
-0.00023886
0.000252634
-0.00026631
0.000216486
-0.000220174
0.000107589
-0.000265148
0.000162562
-0.00029495
0.000144629
-0.000300132
0.000105946
-0.000233581
8.74469e-05
-0.000141329
1.19474e-05
-6.50305e-05
-8.87045e-05
-2.77621e-05
-0.000109219
-2.65574e-05
-0.00011195
-1.59928e-05
-0.000117022
-9.90222e-05
-3.25242e-05
-8.48946e-05
0.0001834
-0.000161682
0.000231331
-0.00024493
0.000274326
-0.000285593
0.000239404
-0.000288664
0.000221752
-0.000284469
0.000215991
-0.000295988
0.000226272
-0.000248779
0.000139029
-0.000308455
0.000186402
-0.000320154
0.000229422
-0.00019717
0.00012965
-0.000195678
0.000214994
-0.000284848
0.00019676
-0.000270909
0.000148622
-0.000250386
0.000124106
-0.000211937
6.74968e-05
-0.000126701
2.21049e-06
-4.33792e-05
-7.1374e-05
-1.77785e-05
-0.000114305
-4.84396e-06
-0.000122153
-3.73179e-05
-7.94765e-05
-1.50352e-05
-0.000139305
-6.79382e-05
-4.61192e-05
-9.10301e-05
0.000274431
-0.000168209
0.00030851
-0.000166933
0.000273049
-0.000181475
0.000253947
-0.000180288
0.000220565
-0.000205707
0.00024141
-0.000227718
0.000248282
-0.000371882
0.000283193
-0.000330611
0.000145132
-0.000322701
0.000221512
-0.000364673
0.000171621
-0.000333782
0.000184103
-0.000241404
0.000104381
-0.000220515
0.000127733
-0.000190204
9.37959e-05
-0.00012261
-9.77194e-08
-4.80417e-05
-7.23575e-05
-1.30287e-05
-0.000106387
-3.35028e-05
-9.38311e-05
-6.00799e-05
-9.55763e-05
-3.57686e-05
-0.000103788
-7.38938e-05
-0.00010118
-8.01137e-05
-6.17184e-05
-9.06408e-05
0.000365072
-0.000169777
0.000387646
-0.000172647
0.00027592
-0.000204289
0.000285588
-0.000319953
0.000336229
-0.000371612
0.000293069
-0.000361216
0.000237886
-0.000216746
0.000138723
-0.000323048
0.000251434
-0.000291278
0.000189742
-0.000275741
0.000156084
-0.000239555
0.000147917
-0.000210825
7.56514e-05
-0.000183356
0.000100264
-0.000116637
2.7077e-05
-5.03323e-05
-6.64029e-05
-2.14444e-05
-0.000101245
-4.64482e-05
-8.13833e-05
-5.78649e-05
-8.24144e-05
-6.25216e-05
-9.09196e-05
-7.15173e-05
-9.4792e-05
-7.21927e-05
-0.000100505
-7.85285e-05
-7.3778e-05
-0.000118962
0.000484033
-0.00018292
0.000451605
-0.000243804
0.000336804
-0.00027076
0.000312543
-0.000211768
0.000277238
-0.00021553
0.000296831
-0.000275273
0.000297629
-0.000271922
0.000135371
-0.000252805
0.000232317
-0.000222997
0.000159935
-0.000223934
0.000157022
-0.000203435
0.000127417
-0.000212862
8.50781e-05
-0.000175229
6.26319e-05
-0.00011006
-3.80926e-05
-0.000114562
-6.19004e-05
-9.586e-05
-0.000119948
-6.38153e-05
-0.000113428
-6.12643e-05
-8.49655e-05
-5.07619e-05
-0.000101422
-2.356e-05
-0.000121994
-5.43834e-05
-6.96813e-05
-9.30804e-05
-3.98315e-05
-7.37251e-05
0.000557758
-0.000105821
0.0004837
-0.000198451
0.000429434
-0.00021318
0.000327272
-0.000193309
0.000257367
-0.00018099
0.000284513
-0.000158664
0.000275303
-0.000241539
0.000218247
-0.000201039
0.000191817
-0.000185943
0.000144839
-0.000200856
0.000171935
-0.00019686
0.000123421
-0.000199198
8.74157e-05
-0.000151227
1.46612e-05
-0.000101687
-8.76332e-05
-6.81247e-05
-9.54626e-05
-6.6153e-05
-0.000121919
-6.94562e-05
-0.000110125
-4.62499e-05
-0.000108172
-3.72324e-05
-0.00011044
-4.5695e-05
-0.000113531
-1.41705e-05
-0.000101206
-8.40865e-05
-2.31644e-05
-0.000128708
0.000686466
-6.06568e-05
0.000415649
-0.0001616
0.000530377
-0.000198026
0.000363698
-0.000254447
0.000313788
-0.000261665
0.00029173
-0.00024305
0.000256688
-0.000207609
0.000182806
-0.000168016
0.000152224
-0.000128249
0.000105071
-0.000145459
0.000189146
-0.000154184
0.000132146
-0.00014433
7.75619e-05
-9.55119e-05
-3.41571e-05
-7.34696e-05
-0.000109675
-5.74097e-05
-0.000111522
-3.64477e-05
-0.000142882
-3.42455e-05
-0.000112327
-3.05747e-05
-0.000111843
-2.15128e-05
-0.000119502
-2.50764e-05
-0.000109968
-1.83645e-05
-0.000107918
-9.3553e-05
-8.89809e-06
-6.78587e-05
0.000754325
-0.000136901
0.000484691
-0.000164138
0.000557613
-0.000198616
0.000398175
-0.000236547
0.000351719
-0.000236581
0.000291764
-0.000106078
0.000126185
-0.000146918
0.000223646
-0.000110606
0.000115912
-0.000128511
0.000122975
-0.000140221
0.000200856
-9.35654e-05
8.54898e-05
-5.34539e-05
3.74504e-05
-1.10592e-05
-7.65518e-05
-4.73337e-05
-7.34011e-05
-2.34543e-05
-0.000135402
-1.78849e-05
-0.000148451
-1.88302e-05
-0.000111382
-1.75319e-05
-0.000113141
-1.71589e-05
-0.000119875
-1.46651e-05
-0.000112462
5.47809e-06
-0.000128061
-7.60763e-05
-1.19986e-05
-5.39619e-05
0.000808287
-0.000184222
0.000614951
-0.000129967
0.000503358
-0.00016315
0.000431357
-0.000132366
0.000320935
-0.000125127
0.000284525
-0.000168666
0.000169724
-9.13922e-05
0.000146373
-0.000118231
0.00014275
-0.000128897
0.000133641
-0.000139958
0.000211917
-0.000118533
6.40651e-05
-6.42525e-05
-1.68301e-05
-3.49764e-05
-0.000105828
-3.3402e-05
-7.49755e-05
-2.04042e-05
-0.0001484
-2.2375e-05
-0.00014648
-2.42766e-06
-0.000131329
-2.89381e-05
-8.66304e-05
-2.26959e-05
-0.000126117
-1.78763e-05
-0.000117281
-2.48169e-05
-0.00012112
-0.000132857
3.19641e-05
-7.1263e-05
0.000879548
-0.000190089
0.000733779
-0.000186144
0.000499414
-0.000171074
0.000416288
-0.000190761
0.000340622
-0.000101806
0.00019557
-0.000212206
0.000280124
-0.000200941
0.000135107
-0.000169544
0.000111353
-0.00012879
9.2887e-05
-0.00010682
0.000189947
-9.85073e-05
5.57522e-05
-7.21908e-05
-4.31467e-05
-6.26858e-05
-0.000115333
-1.76052e-05
-0.000120056
-2.03274e-05
-0.000145678
-2.2345e-05
-0.000144463
-5.22801e-06
-0.000148446
1.04736e-05
-0.000102332
-2.4357e-05
-9.12862e-05
-4.89735e-05
-9.26648e-05
-2.41691e-05
-0.000145925
-0.000134463
-2.25634e-05
-6.42726e-05
0.000943821
-0.000127351
0.000796858
-0.000163026
0.000535089
-0.000150091
0.000403353
-0.000166626
0.000357158
-0.000187523
0.000216467
-0.000204834
0.000297435
-0.000205699
0.000135972
-0.000193387
9.90414e-05
-0.000231634
0.000131134
-0.000189372
0.000147684
-0.000108059
-2.55605e-05
-6.31632e-05
-8.80425e-05
-3.96605e-05
-0.000138836
-3.17882e-05
-0.000127928
-2.31075e-05
-0.000154358
-2.13115e-05
-0.000146259
-1.34108e-05
-0.000156347
-2.26573e-05
-9.30855e-05
-1.56663e-05
-9.82771e-05
-2.2392e-05
-8.59392e-05
-2.10311e-05
-0.000147285
-0.000130784
-2.47107e-05
-2.67448e-05
0.000970567
-9.70879e-05
0.000867201
-0.000133616
0.000571617
-0.00010773
0.000377466
-8.58433e-05
0.000335271
-0.000212139
0.000342763
-0.000156823
0.000242119
-0.000137134
0.000116283
-0.000123827
8.57345e-05
-0.000114964
0.00012227
-7.3942e-05
0.000106663
-3.31162e-05
-6.63864e-05
-1.05238e-05
-0.000110635
-5.11842e-05
-9.81753e-05
-2.32228e-05
-0.00015589
-2.4917e-05
-0.000152664
-2.26102e-05
-0.000148565
-4.11994e-05
-0.000137758
-1.66027e-06
-0.000132625
-5.40828e-06
-9.45291e-05
-6.70106e-06
-8.46464e-05
-7.9588e-06
-0.000146028
-0.000132603
-6.1392e-06
-6.73974e-05
0.00103797
-7.41456e-05
0.00087395
-8.00849e-05
0.000577556
-9.05142e-05
0.000387897
-0.000109769
0.000354526
-0.000112193
0.000345188
-0.000126748
0.000256673
-0.000188303
0.000177838
-0.00016523
6.26614e-05
-0.000106511
6.35516e-05
-5.02609e-05
5.0412e-05
-1.6085e-06
-0.000115039
-2.48932e-05
-8.73503e-05
-2.64926e-05
-9.6576e-05
-8.30619e-06
-0.000174076
7.93524e-06
-0.000168906
-3.35774e-05
-0.000107053
-7.71651e-05
-9.41699e-05
-5.55552e-05
-0.000154234
-4.20643e-06
-0.000145878
3.98702e-06
-9.28398e-05
-4.54859e-06
-0.000137492
-0.000128255
-8.8969e-06
-3.32872e-05
0.00107125
-4.60782e-05
0.000886742
-6.0288e-05
0.000591768
-7.92097e-05
0.000406819
-9.46079e-05
0.000369925
-0.000109984
0.000360564
-0.000144044
0.000290732
-9.58704e-05
0.000129665
-0.000115731
8.25224e-05
-8.76348e-05
3.5455e-05
-1.81123e-05
-1.91105e-05
-4.82147e-05
-8.49363e-05
-5.06825e-05
-8.48825e-05
4.47642e-06
-0.000151735
5.03304e-06
-0.000174633
-3.42796e-05
-0.000129593
-2.66464e-05
-0.000114686
-6.8882e-06
-0.000113928
-4.55484e-05
-0.000115574
-3.46274e-05
-0.000156799
1.91959e-05
-0.000146663
2.37108e-05
-0.000142007
-9.06877e-05
-1.38565e-05
6.57908e-05
0.00100546
4.01239e-05
0.000912409
9.97702e-06
0.000621917
-3.74649e-05
0.000454261
-6.91058e-05
0.000401566
-9.29928e-05
0.000384452
-0.000117407
0.000315146
-9.02338e-05
0.000102492
-9.53269e-05
8.76156e-05
-8.63948e-05
2.65229e-05
-5.90407e-05
-4.64646e-05
-4.2172e-05
-0.000101805
-6.97657e-06
-0.000120078
-1.87005e-05
-0.000140011
-2.13713e-05
-0.000171962
-3.64729e-05
-0.000114491
5.63579e-06
-0.000156795
3.01036e-06
-0.000111303
-7.99258e-06
-0.000104571
2.14242e-06
-0.000166934
3.04999e-07
-0.000144826
-4.02402e-05
-0.000101462
-9.797e-05
-3.29579e-05
5.47498e-05
0.000950712
7.65701e-05
0.000890591
6.17785e-05
0.000636709
4.56323e-07
0.000515583
-4.60161e-05
0.000448038
-7.52481e-05
0.000413684
-0.000107829
0.000347727
-8.42336e-05
7.88973e-05
-0.000114994
0.000118377
-8.02336e-05
-8.23786e-06
-5.49722e-05
-7.17259e-05
-2.5435e-05
-0.000131342
-4.9605e-05
-9.59079e-05
-2.7829e-05
-0.000161787
-3.75084e-05
-0.000162283
-4.36641e-06
-0.000147633
-5.50847e-06
-0.000155652
-1.83338e-05
-9.84773e-05
1.31957e-05
-0.000136101
1.35212e-06
-0.00015509
-5.97607e-06
-0.000137497
-1.14338e-05
-9.60039e-05
-0.000124039
1.46348e-05
3.25332e-05
0.000918181
6.01134e-05
0.000863012
5.66786e-05
0.000640143
7.53517e-06
0.000564726
-3.37789e-05
0.000489352
-6.31996e-05
0.000443104
-0.000106535
0.000391062
-0.000158529
0.000130891
-0.000133729
9.35771e-05
-0.000122225
-1.97415e-05
-7.83559e-05
-0.000115595
-3.88664e-05
-0.000170832
-2.34593e-05
-0.000111315
-1.40024e-05
-0.000171244
-1.22522e-05
-0.000164033
-1.55076e-05
-0.000144378
-1.50104e-05
-0.00015615
1.44366e-05
-0.000127924
1.40251e-05
-0.000135689
-3.10636e-06
-0.000137959
-1.24219e-05
-0.000128182
7.56421e-06
-0.00011599
-0.000107342
-9.13237e-06
4.52225e-05
0.000872959
4.32227e-05
0.000865011
4.59963e-05
0.000637369
1.49836e-05
0.000595739
-1.7383e-05
0.000521719
-5.02927e-05
0.000476014
-8.7114e-05
0.000427883
-0.000169155
0.000212932
-0.000135556
5.99782e-05
-8.73153e-05
-6.79818e-05
-0.000101131
-0.00010178
-6.92492e-05
-0.000202713
4.11585e-06
-0.00018468
1.0739e-05
-0.000177867
-2.27392e-05
-0.000130555
-8.9557e-06
-0.000158162
-2.95609e-06
-0.000162149
3.82574e-07
-0.000131263
6.37105e-06
-0.000141678
7.67232e-06
-0.00013926
1.50165e-05
-0.000135526
-1.4635e-05
-8.63385e-05
-0.000117784
-4.19341e-06
4.61063e-05
0.000826852
6.42877e-05
0.000846829
5.99397e-05
0.000641718
3.21842e-05
0.000623494
-1.94712e-08
0.000553923
-3.5531e-05
0.000511526
-6.58223e-05
0.000458175
-0.000142889
0.000289998
-0.000136098
5.31875e-05
-6.09522e-05
-0.000143128
-4.12579e-05
-0.000121474
-1.07281e-05
-0.000233243
-6.03888e-06
-0.000189369
-4.11751e-06
-0.000179788
3.54147e-05
-0.000170087
8.82724e-07
-0.00012363
-1.42826e-06
-0.000159838
8.13151e-06
-0.000140823
7.02269e-06
-0.000140569
1.62457e-06
-0.000133862
1.43626e-06
-0.000135338
3.35373e-06
-8.8256e-05
-0.000124738
1.03081e-05
1.60398e-05
0.000810813
5.66735e-05
0.000806195
6.26616e-05
0.00063573
4.79401e-05
0.000638216
2.15983e-05
0.000580265
5.43643e-06
0.000527687
-1.875e-05
0.000482361
-5.58494e-05
0.000327098
-5.25948e-05
4.99329e-05
-4.14219e-05
-0.000154301
7.92424e-06
-0.00017082
2.18676e-05
-0.000247186
4.08184e-05
-0.00020832
-9.67532e-06
-0.000129295
-5.08556e-06
-0.000174677
3.79702e-05
-0.000166685
4.39476e-05
-0.000165816
3.36299e-06
-0.000100238
7.00241e-06
-0.000144208
-1.68231e-06
-0.000125177
-1.0376e-05
-0.000126644
1.1762e-05
-0.000110394
-0.000109274
-3.7024e-06
-7.53716e-06
0.00081835
4.45051e-05
0.000754153
3.18314e-05
0.000648403
4.69563e-05
0.00062309
6.06723e-05
0.000566549
6.12802e-05
0.000527079
7.49266e-05
0.000468715
7.5337e-05
0.000326687
9.17192e-05
3.35507e-05
8.47505e-05
-0.000147332
4.59836e-05
-0.000132053
3.59724e-05
-0.000237175
3.86383e-05
-0.000210986
3.13873e-05
-0.000122044
3.38287e-05
-0.000177118
2.3297e-05
-0.000156154
1.48284e-05
-0.000157347
5.69622e-05
-0.000142372
1.354e-05
-0.000100786
1.0669e-05
-0.000122306
1.16703e-05
-0.000127645
2.09169e-05
-0.000119641
-0.000115502
2.71456e-05
-8.00107e-06
0.000826351
1.9354e-05
0.000726797
2.11197e-05
0.000646638
3.50202e-05
0.00060919
7.14961e-05
0.000530073
7.41505e-05
0.000524425
8.62276e-05
0.000456637
8.62033e-05
0.000326711
6.96865e-05
5.00675e-05
4.49187e-05
-0.000122564
0.000110454
-0.000197588
8.79641e-05
-0.000214685
7.29326e-05
-0.000195954
6.26901e-05
-0.000111801
4.10241e-05
-0.000155452
3.32708e-05
-0.0001484
1.68679e-05
-0.000140944
1.35786e-05
-0.000139083
3.46846e-05
-0.000121892
4.52458e-05
-0.000132867
6.89964e-06
-8.92992e-05
1.1667e-05
-0.000124408
-8.40737e-05
-1.97614e-05
-4.76343e-06
0.000831115
1.13508e-05
0.000710682
2.47577e-05
0.000633231
2.10925e-05
0.000612855
6.36266e-05
0.000487539
6.45463e-05
0.000523505
0.00020208
0.000319104
0.00022911
0.000299681