/*--------------------------------*- C++ -*----------------------------------*\
| =========                 |                                                 |
| \\      /  F ield         | foam-extend: Open Source CFD                    |
|  \\    /   O peration     | Version:     4.1                                |
|   \\  /    A nd           | Web:         http://www.foam-extend.org         |
|    \\/     M anipulation  |                                                 |
\*---------------------------------------------------------------------------*/
FoamFile
{
    version     2.0;
    format      ascii;
    class       surfaceScalarField;
    location    "0.95";
    object      phi_0;
}
// * * * * * * * * * * * * * * * * * * * * * * * * * * * * * * * * * * * * * //

dimensions      [0 3 -1 0 0 0 0];

internalField   nonuniform List<scalar> 
4432
(
-7.66865e-06
7.66865e-06
-3.74376e-05
2.97689e-05
-4.85554e-05
1.11178e-05
-4.65872e-05
-1.96823e-06
-2.15632e-05
-2.5024e-05
-6.33281e-06
-1.52304e-05
-1.97034e-05
1.33706e-05
-1.73091e-05
-2.39426e-06
-4.77584e-06
-1.25333e-05
-2.13129e-05
1.65371e-05
-2.15158e-05
2.02839e-07
-2.20342e-05
5.18405e-07
-1.61862e-05
-5.84795e-06
-3.76421e-06
-1.2422e-05
-2.3643e-06
-1.39991e-06
6.48539e-08
-2.42915e-06
2.99365e-06
-2.92879e-06
6.04928e-07
2.38872e-06
-1.22141e-06
1.82634e-06
-2.05458e-06
8.3317e-07
1.36495e-07
-2.19107e-06
-1.61183e-06
1.74833e-06
-1.61183e-06
-1.156e-05
1.92286e-05
-2.56033e-05
4.38122e-05
-3.09894e-05
1.6504e-05
-6.06839e-05
2.77263e-05
-7.02923e-05
-1.54156e-05
-6.72884e-05
-1.82343e-05
-4.00885e-05
-1.38293e-05
-3.16343e-05
-1.08485e-05
-4.27473e-05
-1.42025e-06
-1.75835e-05
-8.62668e-06
-2.64129e-05
9.03223e-06
-1.33991e-05
-1.24954e-05
-1.93483e-05
1.01217e-07
-9.9674e-06
-2.18029e-05
-4.77879e-06
-6.58852e-06
-2.98573e-07
-6.90936e-06
1.13251e-06
-4.35987e-06
3.01666e-06
5.04564e-07
1.98799e-06
2.85501e-06
1.42363e-06
1.39753e-06
1.44183e-06
-2.20927e-06
2.19351e-06
9.96649e-07
5.81678e-07
-2.61473e-05
4.53759e-05
-2.38595e-05
4.15244e-05
-5.45171e-05
4.71616e-05
-6.03704e-05
3.35796e-05
-6.10593e-05
-1.47267e-05
-5.73031e-05
-2.19905e-05
-3.50379e-05
-3.60945e-05
-2.12628e-05
-2.46236e-05
-1.86621e-05
-4.02098e-06
-1.89013e-05
-8.38742e-06
-2.80876e-05
1.82185e-05
-1.9328e-05
-2.1255e-05
-1.516e-05
-4.06681e-06
-1.19469e-05
-2.50161e-05
-2.62929e-06
-1.59061e-05
-1.37246e-06
-8.16619e-06
1.8634e-06
-7.59573e-06
1.64053e-06
7.27436e-07
2.20671e-06
2.28883e-06
3.34217e-06
2.62062e-07
1.24752e-06
-1.14616e-07
5.01077e-07
1.74309e-06
1.08275e-06
-1.24783e-05
5.78542e-05
-1.76381e-05
4.66843e-05
-3.82301e-05
6.77536e-05
-2.69371e-05
2.22866e-05
-6.10829e-05
1.94192e-05
-6.38392e-05
-1.92343e-05
-4.14396e-05
-5.84941e-05
-3.46014e-05
-3.14617e-05
-2.53612e-05
-1.32611e-05
-3.34794e-05
-2.69295e-07
-3.26192e-05
1.73584e-05
-3.64487e-05
-1.74255e-05
-2.48792e-05
-1.56363e-05
-4.08917e-06
-4.58061e-05
-3.73406e-06
-1.62612e-05
-5.9224e-06
-5.97785e-06
-6.7898e-07
-1.28392e-05
1.70175e-06
-1.65329e-06
2.0654e-06
1.92518e-06
3.11054e-06
-7.83078e-07
1.46658e-06
1.52935e-06
9.53221e-07
2.25645e-06
2.03598e-06
-1.1598e-05
6.94522e-05
-3.15033e-05
6.65895e-05
-4.48853e-05
8.11356e-05
-6.38809e-05
4.12822e-05
-6.63609e-05
2.18991e-05
-6.18278e-05
-2.37673e-05
-7.26557e-05
-4.76663e-05
-6.64849e-05
-3.76324e-05
-5.2521e-05
-2.72251e-05
-3.88032e-05
-1.3987e-05
-3.98213e-05
1.83765e-05
-3.48222e-05
-2.24246e-05
-9.3569e-06
-4.11016e-05
-1.63497e-06
-5.3528e-05
-1.37664e-06
-1.65195e-05
-4.61897e-06
-2.73553e-06
-5.47583e-07
-1.69105e-05
8.39603e-07
-3.04048e-06
1.29571e-06
1.46908e-06
5.07854e-07
4.77899e-09
-4.40062e-07
2.47726e-06
-1.73012e-06
3.54651e-06
3.05856e-07
-7.86603e-06
7.73182e-05
-3.14081e-05
9.01316e-05
-3.96533e-05
8.93808e-05
-5.09106e-05
5.25395e-05
-5.78201e-05
2.88086e-05
-5.22444e-05
-2.9343e-05
-3.12608e-05
-6.86499e-05
-3.57913e-05
-3.31019e-05
-2.92897e-05
-3.37267e-05
-3.71558e-05
-6.12099e-06
-2.45953e-05
5.81596e-06
-1.83118e-05
-2.87081e-05
-2.23372e-05
-3.70762e-05
-5.40344e-06
-7.04618e-05
-3.09337e-06
-1.88296e-05
-5.65122e-06
-1.7767e-07
-1.45168e-06
-2.11101e-05
3.47015e-07
-4.83917e-06
1.88162e-06
-6.55316e-08
1.94777e-06
-6.13635e-08
1.22132e-06
3.20371e-06
-1.84826e-07
4.95265e-06
1.2103e-07
-1.23429e-05
8.96611e-05
-2.15258e-05
9.93146e-05
-3.5293e-05
0.000103148
-4.68812e-05
6.41277e-05
-4.94704e-05
3.13978e-05
-4.55842e-05
-3.32292e-05
-4.99583e-05
-6.42758e-05
-2.90721e-05
-5.39881e-05
-4.6453e-05
-1.63458e-05
-4.19373e-05
-1.06366e-05
-2.88093e-05
-7.31206e-06
-2.08982e-05
-3.66192e-05
-2.81517e-05
-2.98227e-05
-1.05894e-05
-8.80241e-05
-1.34285e-05
-1.59905e-05
-5.63393e-06
-7.97222e-06
1.86213e-07
-2.69302e-05
9.51807e-08
-4.74814e-06
-1.98972e-06
2.01937e-06
-9.98158e-07
-1.05293e-06
-1.97788e-06
4.18343e-06
-5.03002e-06
8.00479e-06
-4.90899e-06
-4.34405e-06
9.40052e-05
-9.91657e-06
0.000104887
-2.76995e-05
0.000120931
-4.35055e-05
7.99336e-05
-5.00548e-05
3.79471e-05
-2.33411e-05
-5.99429e-05
-5.09512e-05
-3.66657e-05
-2.75247e-05
-7.74146e-05
-3.67617e-05
-7.10885e-06
-2.0132e-05
-2.72663e-05
-2.50006e-05
-2.44344e-06
-1.75597e-05
-4.40601e-05
-2.74208e-05
-1.99616e-05
-1.33789e-05
-0.000102066
-1.02132e-05
-1.91562e-05
-1.38396e-06
-1.68014e-05
5.13544e-06
-3.34496e-05
2.11074e-06
-1.72344e-06
-2.91015e-06
7.04026e-06
-3.11963e-06
-8.43444e-07
3.28122e-06
-2.21742e-06
3.26963e-06
8.01639e-06
-1.63936e-06
-5.82666e-05
5.82666e-05
-8.05515e-05
2.22849e-05
-0.000107016
2.6464e-05
-0.00013222
2.52049e-05
-0.000127766
-4.45453e-06
-0.000126706
-1.06032e-06
-0.000129303
2.59711e-06
-8.26952e-05
-4.66075e-05
-7.92565e-05
-3.43873e-06
-7.07152e-05
-8.54125e-06
-7.10459e-05
3.30649e-07
-0.000118054
4.70084e-05
-0.000107832
-1.02219e-05
-9.85607e-05
-9.27161e-06
-8.08377e-05
-1.7723e-05
-6.65589e-05
-1.42789e-05
-2.77614e-05
-3.87974e-05
-2.79013e-05
1.39873e-07
-2.79013e-05
-2.39754e-05
8.22421e-05
-6.48745e-05
6.3184e-05
-9.03275e-05
5.1917e-05
-6.71496e-05
2.02696e-06
-0.000111604
3.99997e-05
-0.000111767
-8.97118e-07
-7.22754e-05
-3.68945e-05
-8.06961e-05
-3.81868e-05
-7.6977e-05
-7.15783e-06
-0.000120794
3.52757e-05
-0.000118944
-1.51932e-06
-6.18879e-05
-1.00477e-05
-8.79826e-05
1.58728e-05
-7.86952e-05
-1.8559e-05
-3.30639e-05
-6.33543e-05
-4.31318e-05
-4.21098e-06
-3.55796e-05
-4.63497e-05
-1.88558e-05
-1.65839e-05
-4.67571e-05
-2.73018e-05
0.000109544
-3.83596e-05
7.42417e-05
-3.02136e-05
4.3771e-05
-5.65639e-05
2.83773e-05
-0.000101089
8.45247e-05
-9.40736e-05
-7.91244e-06
-0.000107556
-2.34126e-05
-0.000121405
-2.43378e-05
-0.00011478
-1.37829e-05
-9.55985e-05
1.60946e-05
-8.62731e-05
-1.08447e-05
-7.8301e-05
-1.80198e-05
-4.72662e-05
-1.5162e-05
-2.3313e-05
-4.25121e-05
-3.18027e-05
-5.48646e-05
-2.52233e-05
-1.07904e-05
-1.28955e-05
-5.86775e-05
-7.76127e-06
-2.17181e-05
-5.45184e-05
-2.34029e-05
0.000132947
-4.83478e-05
9.91866e-05
-8.21843e-05
7.76074e-05
-0.000114258
6.04508e-05
-5.91658e-05
2.94327e-05
-9.17512e-05
2.4673e-05
-9.44325e-05
-2.07313e-05
-5.43427e-05
-6.44276e-05
-8.27726e-05
1.4647e-05
-3.61882e-05
-3.04898e-05
-5.82206e-05
1.11877e-05
-3.88748e-05
-3.73657e-05
-4.84782e-06
-4.9189e-05
5.9847e-06
-5.33447e-05
6.74982e-06
-5.56298e-05
1.14135e-05
-1.54541e-05
1.11213e-06
-4.83761e-05
7.40472e-07
-2.13464e-05
-5.37779e-05
-2.76469e-05
0.000160594
-6.00416e-05
0.000131581
-7.95108e-05
9.70767e-05
-5.72936e-05
3.82336e-05
-8.75014e-05
5.96405e-05
-6.64357e-05
3.60727e-06
-3.32925e-05
-5.38745e-05
-6.88018e-05
-2.89183e-05
-2.68397e-05
-2.7315e-05
-3.31087e-05
-2.42208e-05
-1.95561e-05
-2.36497e-06
1.98159e-06
-5.89033e-05
1.12655e-05
-5.84729e-05
2.96675e-05
-7.17466e-05
1.58349e-05
-4.17971e-05
2.33433e-05
-2.29625e-05
1.04445e-05
-3.54774e-05
1.56641e-05
-2.6566e-05
-3.81138e-05
-2.92414e-05
0.000189835
-6.2882e-05
0.000165222
-7.27052e-05
0.0001069
-8.28124e-05
4.83408e-05
-5.96217e-05
3.64499e-05
-3.23993e-05
-2.36151e-05
-3.79588e-05
-4.83151e-05
-3.15257e-05
-3.53513e-05
-1.74124e-05
-4.14284e-05
-5.39648e-06
-3.62368e-05
-2.2681e-06
-5.49335e-06
2.02509e-05
-8.14223e-05
3.45878e-05
-7.28099e-05
3.80026e-05
-7.51614e-05
2.21143e-05
-2.59089e-05
3.88734e-05
-3.97216e-05
1.74267e-05
-1.40307e-05
1.02389e-05
-1.93782e-05
-2.78749e-05
-5.57272e-05
0.000245562
-7.13811e-05
0.000180876
-6.48398e-05
0.000100359
-3.60821e-05
1.95832e-05
-2.68107e-05
2.71785e-05
-2.58672e-05
-2.45587e-05
-2.26202e-05
-5.15621e-05
-1.21598e-05
-4.58116e-05
-1.55818e-07
-5.34324e-05
7.64663e-06
-4.40392e-05
8.01491e-06
-5.86164e-06
2.90711e-05
-0.000102479
4.14264e-05
-8.51651e-05
4.51808e-05
-7.89158e-05
4.64138e-05
-2.7142e-05
3.87953e-05
-3.21031e-05
1.62067e-05
8.55793e-06
1.01625e-05
-1.33339e-05
-1.77124e-05
-7.05e-05
0.000316062
-8.82312e-05
0.000198607
-3.47933e-05
4.69206e-05
-4.61732e-05
3.0963e-05
-3.50928e-05
1.60982e-05
-2.4719e-05
-3.49325e-05
-1.05602e-05
-6.57209e-05
-1.06219e-05
-4.57499e-05
4.81526e-07
-6.45359e-05
2.0777e-05
-6.43347e-05
3.06721e-05
-1.57567e-05
3.5229e-05
-0.000107035
2.41013e-05
-7.40375e-05
2.36785e-05
-7.84929e-05
4.62764e-05
-4.97399e-05
3.56129e-05
-2.14396e-05
2.79688e-05
1.6202e-05
1.05062e-05
4.12862e-06
-7.20623e-06
-1.19809e-05
0.000105986
-1.47761e-05
0.000107682
-1.91393e-05
0.000125294
-3.96613e-05
0.000100456
-3.72979e-05
3.55838e-05
-7.86666e-05
-1.85743e-05
-7.11567e-05
-4.41755e-05
-0.000130639
-1.7932e-05
-0.000114507
-2.32415e-05
-9.73677e-05
-4.44053e-05
-4.62542e-05
-5.35569e-05
-2.27017e-05
-6.76126e-05
-1.97947e-05
-2.28686e-05
-6.5502e-05
-5.63587e-05
-4.87272e-05
-3.5931e-05
-2.59848e-05
-3.95438e-05
-1.12136e-05
-4.82209e-05
3.62164e-06
-1.65587e-05
1.91373e-05
-8.4754e-06
2.88413e-05
-1.05475e-05
2.11042e-05
5.51965e-06
-3.57739e-05
6.48945e-05
3.83288e-05
-7.5742e-05
-2.51481e-06
0.000108501
-4.8809e-06
0.000110048
-9.80135e-06
0.000130215
-7.70631e-06
9.83606e-05
-1.35212e-06
2.92296e-05
-7.10257e-06
-1.28238e-05
-4.51642e-05
-6.11387e-06
-6.77446e-05
4.64834e-06
-6.77831e-05
-2.3203e-05
-9.95071e-05
-1.26814e-05
-9.68425e-05
-5.62215e-05
-0.000114367
-5.00882e-05
-8.06704e-05
-5.6565e-05
-0.000110359
-2.66697e-05
-0.000101631
-4.46592e-05
-0.000114481
-2.66937e-05
-0.000118783
-4.39195e-05
-0.000120444
-1.48972e-05
-0.00012694
-1.97914e-06
-0.00013324
-4.24743e-06
-0.000156988
2.92669e-05
-0.000118832
2.67389e-05
9.79638e-05
-0.000178467
5.31634e-06
0.000103185
-4.56712e-06
0.000119932
2.10928e-05
0.000104555
1.94641e-05
9.99893e-05
1.97111e-06
4.67226e-05
-9.13867e-06
-1.71401e-06
-2.07295e-05
5.47697e-06
-4.23653e-05
2.62842e-05
-5.76015e-05
-7.96679e-06
-6.47501e-05
-5.53277e-06
-0.000112454
-8.51766e-06
-0.000126401
-3.61412e-05
-0.000146073
-3.68932e-05
-0.000149117
-2.36256e-05
-0.000169123
-2.46526e-05
-0.000168247
-2.75697e-05
-0.00017592
-3.62469e-05
-0.000199126
8.30923e-06
-0.000221361
2.02558e-05
-0.00021982
-5.78836e-06
-0.000213924
2.33701e-05
-0.000218332
3.11474e-05
9.72356e-05
-0.000217604
-1.39428e-06
0.000104579
-4.67532e-06
0.000123213
-3.49753e-06
0.000103377
-2.81231e-07
9.6773e-05
-2.54844e-05
7.19257e-05
-5.10538e-05
2.38554e-05
-6.9034e-05
2.34571e-05
-8.73722e-05
4.46224e-05
-0.000100512
5.17262e-06
-0.0001228
1.67557e-05
-0.00014022
8.90205e-06
-0.000154333
-2.20277e-05
-0.000168137
-2.30899e-05
-0.0001596
-3.21619e-05
-0.000166996
-1.7257e-05
-0.000169865
-2.47009e-05
-0.000169698
-3.6414e-05
-0.000125073
-3.63158e-05
-0.000135874
3.10573e-05
-0.000194416
5.27538e-05
-0.00019427
2.32241e-05
-0.000225001
6.1878e-05
3.09532e-05
-0.000158719
-3.46015e-05
0.00013918
-1.72378e-06
9.03352e-05
5.50712e-06
9.61461e-05
-4.94256e-06
0.000107223
-4.71863e-05
0.00011417
-8.80931e-05
6.47621e-05
-0.000110063
4.54272e-05
-8.45459e-05
1.91051e-05
-0.000116371
3.69981e-05
-0.000128071
2.84551e-05
-0.000155527
3.63579e-05
-0.000149421
-2.81338e-05
-0.000147027
-2.54837e-05
-0.000162159
-1.70298e-05
-0.000121248
-5.81676e-05
-0.000107403
-3.8546e-05
-0.000141187
-2.63019e-06
-0.000168189
-9.31338e-06
-0.00014306
5.92768e-06
-0.000136982
4.66761e-05
-0.000210251
9.6493e-05
-0.0002177
6.9327e-05
5.63028e-05
-0.000243049
-1.40156e-05
0.000153196
-1.52576e-05
9.15772e-05
-1.84143e-05
9.93027e-05
-3.57566e-05
0.000124565
-2.49025e-05
0.000103315
-4.3471e-05
8.33306e-05
-3.83183e-05
4.02745e-05
-6.4128e-05
4.49149e-05
-0.00010732
8.01905e-05
-0.000119416
4.05511e-05
-8.64103e-05
3.35169e-06
-0.000112531
-2.01287e-06
-0.000115328
-2.2687e-05
-8.26896e-05
-4.96682e-05
-0.000105775
-3.50825e-05
-0.000165696
2.13757e-05
-0.000179268
1.09418e-05
-0.000204832
1.62499e-05
-0.000239045
4.01412e-05
-0.000278233
8.58641e-05
-0.000282331
0.000100591
-0.000266699
5.36945e-05
4.71422e-05
-0.000257538
6.26262e-06
0.000146933
-1.3705e-05
0.000111545
-2.48822e-05
0.00011048
8.067e-06
9.16159e-05
-1.44595e-05
0.000125842
-9.10579e-05
0.000159929
-9.8012e-05
4.72287e-05
-0.000111124
5.80272e-05
-0.000109662
7.87279e-05
-8.05326e-05
1.1422e-05
-8.99691e-05
1.27882e-05
-0.000115961
2.3979e-05
-0.000126273
-1.23745e-05
-0.00016349
-1.2452e-05
-0.000192003
-6.56895e-06
-0.000190379
1.97517e-05
-0.00021634
3.69021e-05
-0.000265126
6.50362e-05
-0.000304383
7.93983e-05
-0.000313962
9.5443e-05
-0.000313817
0.000100446
-0.000303404
4.32818e-05
2.19728e-05
-0.000278234
1.32454e-05
0.000133688
2.38538e-05
0.000100937
1.51165e-05
0.000119217
-7.92978e-06
0.000114662
-3.02529e-05
0.000148165
-4.97741e-05
0.00017945
-0.000114801
0.000112256
-0.000110943
5.41697e-05
-7.37955e-05
4.15799e-05
-0.000139953
7.758e-05
-0.000165344
3.81782e-05
-0.000170826
2.94618e-05
-0.000180757
-2.44335e-06
-0.000189373
-3.83663e-06
-0.000199389
3.44728e-06
-0.000223454
4.38168e-05
-0.000257868
7.13165e-05
-0.000293875
0.000101043
-0.000313827
9.93499e-05
-0.000318658
0.000100274
-0.000291311
7.30992e-05
-0.000268077
2.00478e-05
-4.83769e-06
-0.000241267
5.02028e-05
8.3485e-05
7.80814e-05
7.3058e-05
2.60799e-05
0.000171219
1.46203e-05
0.000126122
-5.75732e-05
0.000220359
-5.273e-05
0.000174607
-9.34191e-05
0.000152945
-0.000105189
6.59393e-05
-0.000105944
4.23353e-05
-0.000109597
8.12327e-05
-0.00013865
6.72313e-05
-0.000158767
4.95787e-05
-0.000132378
-2.88319e-05
-0.000148636
1.24214e-05
-0.000221132
7.59432e-05
-0.000255257
7.79415e-05
-0.000279019
9.50792e-05
-0.000293213
0.000115236
-0.000311395
0.000117532
-0.000298093
8.6973e-05
-0.000258294
3.33002e-05
-0.000232908
-5.33828e-06
-1.33738e-05
-0.000224372
1.95659e-05
6.39191e-05
2.05535e-05
7.20705e-05
2.50312e-05
0.000166741
-5.97904e-06
0.000157132
-2.47106e-05
0.00023909
-7.50288e-05
0.000224925
-4.34744e-05
0.00012139
-9.16545e-05
0.000114119
-0.000102239
5.29199e-05
-9.09775e-05
6.99711e-05
-9.3381e-05
6.96348e-05
-7.71151e-05
3.33129e-05
-0.000127065
2.11177e-05
-0.000225539
0.000110895
-0.000249742
0.000100147
-0.000281284
0.000109483
-0.000257226
7.10212e-05
-0.00026092
0.000118931
-0.000267857
0.000124468
-0.00025216
7.12761e-05
-0.000220255
1.39568e-06
-0.000199643
-2.59501e-05
-2.03383e-05
-0.000192679
1.15535e-05
5.23656e-05
-1.73208e-05
0.000100945
2.31249e-05
0.000126295
8.38682e-06
0.00017187
9.00165e-06
0.000238476
1.8161e-05
0.000215766
1.33207e-05
0.000126231
-4.64589e-05
0.000173899
-5.72965e-05
6.37575e-05
-4.91277e-05
6.18023e-05
-6.44664e-05
8.49735e-05
-0.000130211
9.90579e-05
-0.00019666
8.7566e-05
-0.000144198
5.84334e-05
-0.000148787
0.000104736
-0.000154502
0.000115198
-0.00024218
0.000158699
-0.0002365
0.00011325
-0.000159134
4.71029e-05
-0.000131238
4.33796e-05
-0.00015994
3.00975e-05
-0.000164075
-2.18146e-05
-3.48094e-05
-0.000149604
6.66718e-06
4.56985e-05
2.20896e-05
8.55225e-05
3.40352e-05
0.00011435
2.50978e-07
0.000205655
2.74918e-05
0.000211235
3.95861e-05
0.000203672
2.12891e-05
0.000144528
4.58918e-06
0.000190599
-4.17268e-05
0.000110074
-3.66241e-05
5.66997e-05
-6.37586e-05
0.000112108
-9.80149e-05
0.000133314
-0.000132415
0.000121966
-0.000237427
0.000163446
-0.00026357
0.000130879
-0.000245304
9.69319e-05
-0.000243531
0.000156926
-0.000233123
0.000102842
-0.000232796
4.67767e-05
-0.000214502
2.50849e-05
-0.000184773
3.68972e-07
-0.000164864
-4.17239e-05
-0.000110533
-8.91405e-05
1.58593e-05
2.98392e-05
1.82621e-05
8.312e-05
-2.21954e-05
0.000154808
-6.21971e-06
0.000189679
3.0458e-05
0.000174557
4.27373e-05
0.000191393
-5.25172e-06
0.000192517
-1.39996e-05
0.000199347
-3.39986e-05
0.000130073
-0.000119925
0.000142626
-0.000158271
0.000150454
-0.000194204
0.000169247
-0.000222531
0.000150292
-0.00015955
0.000100466
-0.000136088
0.000107417
-0.000246198
0.000207042
-0.000253724
0.000164451
-0.000211109
6.02274e-05
-0.000194371
3.00389e-05
-0.00016089
-8.3964e-06
-8.99036e-05
-7.06171e-05
-2.38028e-05
-0.000107825
-9.62535e-05
-3.8082e-05
-3.6302e-05
6.61414e-05
-8.48499e-05
0.000131668
-0.000116161
0.000186119
-0.000116105
0.000189623
-6.09057e-05
0.000119358
-8.43686e-05
0.000214856
-0.000104416
0.000212564
-0.000107884
0.000202815
-9.81544e-05
0.000120343
-0.000149497
0.000193969
-0.000204161
0.000205118
-0.000224483
0.000189569
-0.000228457
0.000154266
-0.000246065
0.000118074
-0.000254015
0.000115367
-0.000148552
0.000101579
-0.00014001
0.000155909
-0.000186863
0.00010708
-0.0001463
-1.05236e-05
-8.48564e-05
-6.98402e-05
-4.57527e-05
-0.000109721
-4.70953e-05
-0.000106482
-0.00011606
-2.72893e-05
-3.79933e-05
0.000104135
-6.60098e-05
0.000159685
-7.15672e-05
0.000191676
-8.12212e-05
0.000199277
-0.000179855
0.000217991
-0.000182027
0.000217028
-0.000182111
0.000212649
-0.000164463
0.000185167
-0.000170465
0.000126345
-0.000194521
0.000218025
-0.000242352
0.000252949
-0.000269414
0.000216631
-0.000222762
0.000107614
-0.000267406
0.000162718
-0.000297051
0.000145012
-0.000302844
0.000107372
-0.000236771
8.98354e-05
-0.000145345
1.56538e-05
-6.8609e-05
-8.72592e-05
-2.92987e-05
-0.00010915
-2.70439e-05
-0.000111976
-1.64991e-05
-0.000117027
-9.98066e-05
-3.27521e-05
-8.75918e-05
0.000191727
-0.000166134
0.000238227
-0.000251231
0.000276773
-0.000292579
0.000240625
-0.00029583
0.000221242
-0.000290895
0.000212093
-0.000302741
0.000224496
-0.00025637
0.000138796
-0.000315225
0.0001852
-0.000325479
0.000228279
-0.000200774
0.000128243
-0.000198331
0.000214188
-0.000287771
0.000197054
-0.000273831
0.000148778
-0.000253272
0.000124453
-0.000214949
6.90501e-05
-0.000130816
5.70185e-06
-4.57005e-05
-6.94615e-05
-1.86429e-05
-0.000114317
-5.24047e-06
-0.000122553
-3.75966e-05
-7.96195e-05
-1.48924e-05
-0.000139731
-6.86511e-05
-4.60479e-05
-9.26114e-05
0.000284338
-0.000170343
0.000315959
-0.000169128
0.000275558
-0.000183805
0.000255303
-0.000183275
0.000220712
-0.000207977
0.000236794
-0.000231411
0.00024793
-0.000373154
0.000280538
-0.000333779
0.000145826
-0.000325508
0.000220008
-0.000367385
0.00017012
-0.000336324
0.000183126
-0.000243518
0.000104248
-0.000222401
0.000127661
-0.000192722
9.47733e-05
-0.000126208
2.5367e-06
-5.04812e-05
-7.00253e-05
-1.35663e-05
-0.000106376
-3.37387e-05
-9.41444e-05
-6.01207e-05
-9.61709e-05
-3.56299e-05
-0.00010411
-7.36429e-05
-0.000101718
-8.0969e-05
-6.13251e-05
-9.20306e-05
0.000376369
-0.000170357
0.000394285
-0.000173601
0.000278803
-0.000206049
0.00028775
-0.000317095
0.000331759
-0.000372086
0.000291786
-0.000362079
0.000237922
-0.000219928
0.000138387
-0.00032335
0.000249247
-0.000291157
0.000187815
-0.000275785
0.000154749
-0.000240229
0.00014757
-0.000212167
7.61859e-05
-0.000185976
0.000101471
-0.000120842
2.96393e-05
-5.3758e-05
-6.45471e-05
-2.2347e-05
-0.000101436
-4.70117e-05
-8.17118e-05
-5.82302e-05
-8.29259e-05
-6.2733e-05
-9.16681e-05
-7.1576e-05
-9.52675e-05
-7.21045e-05
-0.00010119
-7.90951e-05
-7.39784e-05
-0.000118571
0.00049494
-0.000182658
0.000458372
-0.00024385
0.000339995
-0.00026919
0.00031309
-0.000212113
0.000274682
-0.000216516
0.000296189
-0.000274966
0.000296372
-0.000271548
0.00013497
-0.000253244
0.000230942
-0.000223568
0.00015814
-0.000225295
0.000156476
-0.00020563
0.000127904
-0.000215637
8.61924e-05
-0.000179153
6.49874e-05
-0.000113841
-3.56728e-05
-0.00011654
-6.18481e-05
-9.70197e-05
-0.000120957
-6.43075e-05
-0.000114424
-6.18406e-05
-8.53928e-05
-5.13668e-05
-0.000102142
-2.38752e-05
-0.000122759
-5.4737e-05
-7.03278e-05
-9.38539e-05
-3.99783e-05
-7.27039e-05
0.000567644
-0.000105678
0.000491346
-0.000198981
0.000433298
-0.000212267
0.000326376
-0.000193156
0.000255572
-0.000181259
0.000284291
-0.000159285
0.000274398
-0.000242647
0.000218332
-0.000201449
0.000189745
-0.000186183
0.000142873
-0.000201496
0.000171789
-0.000198361
0.000124769
-0.000201997
8.98287e-05
-0.000153655
1.66452e-05
-0.000103448
-8.58796e-05
-6.92591e-05
-9.6037e-05
-6.73054e-05
-0.000122911
-7.00944e-05
-0.000111635
-4.67936e-05
-0.000108694
-3.77202e-05
-0.000111215
-4.62392e-05
-0.00011424
-1.4462e-05
-0.000102105
-8.49595e-05
-2.33564e-05
-0.000129836
0.00069748
-6.08028e-05
0.000422313
-0.000161561
0.000534056
-0.000198095
0.00036291
-0.000255724
0.000313202
-0.000263068
0.000291634
-0.000245292
0.000256623
-0.000208947
0.000181987
-0.000168979
0.000149777
-0.000130025
0.000103918
-0.00014704
0.000188804
-0.000155808
0.000133538
-0.000146139
8.01589e-05
-9.83611e-05
-3.11323e-05
-7.49904e-05
-0.00010925
-5.80696e-05
-0.000112958
-3.69593e-05
-0.000144021
-3.47664e-05
-0.000113828
-3.10602e-05
-0.0001124
-2.18215e-05
-0.000120454
-2.52696e-05
-0.000110792
-1.85694e-05
-0.000108805
-9.44063e-05
-9.12262e-06
-6.86215e-05
0.000766101
-0.000138837
0.000492529
-0.000163348
0.000558567
-0.000198764
0.000398325
-0.00023656
0.000350998
-0.000237578
0.000292652
-0.000107716
0.00012676
-0.000149169
0.00022344
-0.000114199
0.000114807
-0.000131924
0.000121643
-0.000143064
0.000199944
-9.59082e-05
8.63819e-05
-5.59072e-05
4.0158e-05
-1.16321e-05
-7.54075e-05
-4.73373e-05
-7.35453e-05
-2.34976e-05
-0.000136797
-1.78919e-05
-0.000149627
-1.91246e-05
-0.000112595
-1.7873e-05
-0.000113651
-1.74006e-05
-0.000120926
-1.47179e-05
-0.000113475
5.62459e-06
-0.000129148
-7.67552e-05
-1.20265e-05
-5.217e-05
0.000818271
-0.000187046
0.000627405
-0.000129728
0.000501248
-0.000163429
0.000432026
-0.000133141
0.00032071
-0.000125868
0.000285378
-0.000169804
0.000170696
-9.30066e-05
0.000146642
-0.000120401
0.000142202
-0.000131317
0.000132559
-0.000142516
0.000211142
-0.000121201
6.50663e-05
-6.5636e-05
-1.54069e-05
-3.54982e-05
-0.000105545
-3.36122e-05
-7.54313e-05
-2.08063e-05
-0.000149603
-2.23333e-05
-0.0001481
-2.51047e-06
-0.000132418
-2.89811e-05
-8.71808e-05
-2.26977e-05
-0.00012721
-1.78897e-05
-0.000118283
-2.47917e-05
-0.000122246
-0.000133737
3.21896e-05
-6.55131e-05
0.000883782
-0.000184528
0.000746421
-0.000184879
0.0005016
-0.00016952
0.000416668
-0.00018995
0.00034114
-0.000101563
0.000196991
-0.00021222
0.000281353
-0.00020205
0.000136473
-0.000170946
0.000111098
-0.000130688
9.23003e-05
-0.000108905
0.00018936
-0.000102043
5.82041e-05
-7.45493e-05
-4.29003e-05
-6.39297e-05
-0.000116165
-1.78646e-05
-0.000121496
-2.03945e-05
-0.000147074
-2.22897e-05
-0.000146205
-5.04155e-06
-0.000149666
1.09362e-05
-0.000103159
-2.4102e-05
-9.21716e-05
-4.90138e-05
-9.3371e-05
-2.42002e-05
-0.000147059
-0.00013549
-2.24464e-05
-5.41135e-05
0.000937896
-0.000121046
0.000813354
-0.000161517
0.000542071
-0.000148956
0.000404107
-0.000164575
0.00035676
-0.000186325
0.000218741
-0.0002049
0.000299928
-0.000206311
0.000137884
-0.000193463
9.825e-05
-0.000233455
0.000132292
-0.000192071
0.000147975
-0.000110432
-2.34349e-05
-6.4384e-05
-8.89482e-05
-4.01105e-05
-0.000140438
-3.16274e-05
-0.00012998
-2.29843e-05
-0.000155717
-2.11155e-05
-0.000148073
-1.31363e-05
-0.000157645
-2.21699e-05
-9.4125e-05
-1.55242e-05
-9.88174e-05
-2.205e-05
-8.68451e-05
-2.08505e-05
-0.000148259
-0.000131866
-2.44746e-05
-1.88003e-05
0.000956698
-8.74441e-05
0.000881998
-0.000126045
0.000580671
-0.000103145
0.000381207
-8.29814e-05
0.000336596
-0.000210099
0.000345858
-0.00015618
0.000246009
-0.000137099
0.000118802
-0.000126766
8.79168e-05
-0.000116055
0.000121582
-7.52307e-05
0.000107151
-3.33066e-05
-6.53591e-05
-1.03206e-05
-0.000111934
-5.10531e-05
-9.9706e-05
-2.3191e-05
-0.000157842
-2.45518e-05
-0.000154356
-2.24916e-05
-0.000150134
-4.07349e-05
-0.000139402
-1.33439e-06
-0.000133525
-4.74443e-06
-9.54073e-05
-6.45265e-06
-8.51369e-05
-7.65471e-06
-0.000147057
-0.000133606
-5.91447e-06
-6.39891e-05
0.00102069
-6.39395e-05
0.000881949
-7.15266e-05
0.000588258
-8.56665e-05
0.000395348
-0.000105987
0.000356917
-0.000110518
0.00035039
-0.000126094
0.000261585
-0.000187504
0.000180212
-0.000163224
6.36371e-05
-0.000105735
6.40928e-05
-4.97671e-05
5.11826e-05
5.11616e-08
-0.000115177
-2.36088e-05
-8.82742e-05
-2.50779e-05
-9.8237e-05
-6.95411e-06
-0.000175965
9.09322e-06
-0.000170403
-3.27751e-05
-0.000108265
-7.68394e-05
-9.53379e-05
-5.53842e-05
-0.000154981
-3.99374e-06
-0.000146798
4.19036e-06
-9.3321e-05
-4.44299e-06
-0.000138424
-0.000129241
-8.80842e-06
-3.08306e-05
0.00105152
-3.73233e-05
0.000888443
-5.12128e-05
0.000602151
-7.39044e-05
0.00041804
-9.16035e-05
0.000374617
-0.000108614
0.0003674
-0.000142919
0.00029589
-9.44446e-05
0.000131738
-0.000114689
8.38818e-05
-8.6973e-05
3.63765e-05
-1.71583e-05
-1.86321e-05
-4.66027e-05
-8.5733e-05
-4.90968e-05
-8.57802e-05
6.23695e-06
-0.000153571
6.58462e-06
-0.000176313
-3.31546e-05
-0.000130664
-2.58726e-05
-0.000115547
-6.54213e-06
-0.000114668
-4.51519e-05
-0.000116371
-3.38377e-05
-0.000158112
2.00707e-05
-0.000147229
2.43286e-05
-0.000142681
-9.14408e-05
-1.34716e-05
6.47146e-05
0.000986802
4.59108e-05
0.000907247
1.75624e-05
0.000630501
-3.13132e-05
0.000466916
-6.62732e-05
0.000409577
-9.15278e-05
0.000392655
-0.000116283
0.000320646
-8.97596e-05
0.000105214
-9.5341e-05
8.94633e-05
-8.64106e-05
2.74461e-05
-5.87234e-05
-4.63192e-05
-4.07573e-05
-0.000103699
-6.20572e-06
-0.000120332
-1.74098e-05
-0.000142367
-2.07201e-05
-0.000173003
-3.53519e-05
-0.000116032
6.65169e-06
-0.000157551
3.82972e-06
-0.000111846
-7.37431e-06
-0.000105167
2.56427e-06
-0.00016805
1.30104e-06
-0.000145966
-3.9698e-05
-0.000101682
-9.8618e-05
-3.25208e-05
5.34385e-05
0.000933364
7.33014e-05
0.000887386
6.18795e-05
0.000641923
1.51266e-06
0.000527282
-4.49481e-05
0.000456038
-7.3788e-05
0.000421495
-0.000108552
0.00035541
-8.49656e-05
8.1628e-05
-0.000115396
0.000119894
-8.00461e-05
-7.90378e-06
-5.3231e-05
-7.31343e-05
-2.41325e-05
-0.000132798
-4.77618e-05
-9.67026e-05
-2.71058e-05
-0.000163023
-3.65221e-05
-0.000163586
-3.67747e-06
-0.000148877
-4.94234e-06
-0.000156286
-1.75327e-05
-9.92561e-05
1.40836e-05
-0.000136783
1.82313e-06
-0.00015579
-5.72842e-06
-0.000138415
-1.10293e-05
-9.63816e-05
-0.000124941
1.52933e-05
3.11222e-05
0.000902245
5.73936e-05
0.000861116
5.34824e-05
0.000645833
7.20617e-06
0.000573558
-3.3772e-05
0.000497016
-6.23372e-05
0.00045006
-0.000105247
0.00039832
-0.00015869
0.00013507
-0.000131454
9.26583e-05
-0.000120176
-1.9181e-05
-7.6244e-05
-0.000117067
-3.75948e-05
-0.000171447
-2.17434e-05
-0.000112554
-1.23176e-05
-0.000172449
-1.14176e-05
-0.000164486
-1.43036e-05
-0.000145991
-1.38106e-05
-0.000156779
1.55688e-05
-0.000128635
1.50002e-05
-0.000136215
-2.76115e-06
-0.000138029
-1.1998e-05
-0.000129178
8.05447e-06
-0.000116434
-0.000108066
-8.82009e-06
3.84704e-05
0.000863775
4.26926e-05
0.000856892
4.28043e-05
0.000645721
1.52082e-05
0.000601154
-1.70296e-05
0.000529254
-4.99762e-05
0.000483007
-8.5898e-05
0.000434242
-0.000168532
0.000217704
-0.000134697
5.88234e-05
-8.43723e-05
-6.95057e-05
-9.80901e-05
-0.000103349
-6.70541e-05
-0.000202483
6.8297e-06
-0.000186438
1.30613e-05
-0.00017868
-2.08162e-05
-0.000130609
-8.06976e-06
-0.000158737
-1.97717e-06
-0.000162872
1.5133e-06
-0.000132126
7.36435e-06
-0.000142066
9.08204e-06
-0.000139746
1.58664e-05
-0.000135962
-1.39816e-05
-8.65861e-05
-0.000118215
-3.83298e-06
3.58555e-05
0.000827918
6.41437e-05
0.000828604
5.89584e-05
0.000650906
3.20705e-05
0.000628042
9.27422e-07
0.000560397
-3.46834e-05
0.000518617
-6.31414e-05
0.0004627
-0.000139177
0.00029374
-0.000132455
5.21009e-05
-5.89142e-05
-0.000143046
-3.95542e-05
-0.000122709
-7.94374e-06
-0.000234093
-4.56559e-06
-0.000189816
-2.88758e-06
-0.000180358
3.76573e-05
-0.000171154
2.15949e-06
-0.00012324
-1.24739e-07
-0.000160587
9.00791e-06
-0.000141259
7.7903e-06
-0.000140848
2.57741e-06
-0.000134533
2.20284e-06
-0.000135587
3.9533e-06
-8.83366e-05
-0.000124988
1.07269e-05
8.29779e-06
0.00081962
5.56415e-05
0.00078126
6.05013e-05
0.000646046
4.62561e-05
0.000642287
2.28258e-05
0.000583827
1.0495e-05
0.000530948
-1.50393e-05
0.000488234
-4.84413e-05
0.000327142
-4.579e-05
4.94497e-05
-3.35759e-05
-0.00015526
1.46869e-05
-0.000170971
2.69394e-05
-0.000246346
4.45085e-05
-0.000207385
-6.62442e-06
-0.000129225
-3.67241e-06
-0.000174106
3.95636e-05
-0.000166476
4.52615e-05
-0.000166285
3.97815e-06
-9.99752e-05
7.78027e-06
-0.00014465
-1.37289e-06
-0.00012538
-9.8432e-06
-0.000127117
1.22823e-05
-0.000110462
-0.000109548
-3.1578e-06
-1.25265e-05
0.000832147
4.08728e-05
0.00072786
3.10449e-05
0.000655874
4.43233e-05
0.000629008
5.90986e-05
0.000569052
6.13553e-05
0.000528691
7.86622e-05
0.000470927
8.24313e-05
0.000323373
9.97571e-05
3.21239e-05
9.1955e-05
-0.000147458
5.1154e-05
-0.00013017
4.02642e-05
-0.000235456
4.17478e-05
-0.000208869
3.37283e-05
-0.000121206
3.57844e-05
-0.000176162
2.43593e-05
-0.00015505
1.5705e-05
-0.000157631
5.80912e-05
-0.000142361
1.40869e-05
-0.000100646
1.1486e-05
-0.000122779
1.20695e-05
-0.000127701
2.13718e-05
-0.000119764
-0.000115609
2.74332e-05
-5.72474e-06
0.000837871
1.27803e-05
0.000709354
1.90876e-05
0.000649566
3.19049e-05
0.000616191
7.06133e-05
0.000530343
7.38174e-05
0.000525487
8.68394e-05
0.000457905
8.92081e-05
0.000321004
7.32202e-05
4.81117e-05
4.82568e-05
-0.000122495
0.000113323
-0.000195237
9.02228e-05
-0.000212356
7.5042e-05
-0.000193688
6.43875e-05
-0.000110551
4.25045e-05
-0.000154279
3.48302e-05
-0.000147376
1.74707e-05
-0.000140272
1.4417e-05
-0.000139308
3.52137e-05
-0.000121443
4.56694e-05
-0.000133235
7.1412e-06
-8.91726e-05
1.22605e-05
-0.000124884
-8.41356e-05
-1.92133e-05
7.93255e-08
0.000837791
7.35842e-06
0.000702075
2.20967e-05
0.000634828
1.82947e-05
0.000619993
6.21052e-05
0.000486533
6.31238e-05
0.000524469
0.000198461
0.000322568
0.000231923
0.000287542
0.000231768