/*--------------------------------*- C++ -*----------------------------------*\
| =========                 |                                                 |
| \\      /  F ield         | foam-extend: Open Source CFD                    |
|  \\    /   O peration     | Version:     4.1                                |
|   \\  /    A nd           | Web:         http://www.foam-extend.org         |
|    \\/     M anipulation  |                                                 |
\*---------------------------------------------------------------------------*/
FoamFile
{
    version     2.0;
    format      ascii;
    class       volScalarField;
    location    "0.95";
    object      psi;
}
// * * * * * * * * * * * * * * * * * * * * * * * * * * * * * * * * * * * * * //

dimensions      [1 -1 -2 0 0 0 0];

internalField   nonuniform List<scalar> 
2268
(
-1938.77
-2272.79
-2449.52
-2640.69
-2799.02
-2767.06
-2539.83
-2659.69
-2857.67
-772.381
-40.5843
-31.0137
-12.3929
-24.8822
-4.32098
-2.98237
-1.11621
-1.32768
-16.5473
-61.9536
-79.6623
-1161.31
-2107.77
-1818.12
-2200.72
-2377.17
-2850.71
-2792.68
-2779.33
-2787.17
-2386.67
-1839.42
-1090.68
-143.005
-187.191
-48.6171
-237.874
-32.0243
-16.3069
-3.44745
-1.13418
-3.94297
-11.7822
-9.20008
-177.813
-1318.64
-1572.61
-1879
-2056.28
-2752.31
-2847.09
-2856.51
-2842.05
-2827.07
-2856.76
-2803.6
-539.809
-288.013
-334.639
-1315.46
-264.979
-76.7785
-12.6381
-2.89649
-1.35294
-1.84073
-8.31617
-67.7274
-332.209
-1050.82
-617.288
-427.606
-1718.25
-2801.38
-2853.23
-2761.13
-2384.86
-1964.17
-1095.62
-755.423
-1222.31
-2200.85
-2856.53
-921.811
-241.359
-76.2095
-21.1447
-4.78987
-5.3552
-9.65014
-81.4364
-223.137
-369.547
207.595
-852.188
-2690.06
-2848.66
-2855.81
-2803.52
-2044.04
-1495.57
-1222.86
-1332.3
-2597.12
-2850.78
-2454.16
-1994.5
-792.879
-419.589
-138.054
-50.8818
-32.1094
-36.7854
-181.374
-244.952
-151.474
147.458
-669.484
-2106.91
-2552.21
-1928.18
-2048.39
-2790.75
-2758.72
-1827.92
-1797.73
-2857.53
-2779.32
-2253.19
-2623.63
-1736.06
-1558.75
-794.567
-574.093
-219.67
-210.956
-460.408
-401.622
-69.2716
182.384
-497.415
-1393.52
-1895.47
-447.953
-1625.86
-2002.37
-2466.72
-2830.24
-2767.64
-2268.37
-2756.21
-2315.26
-2808.22
-2572.78
-2857.72
-2493.47
-2155.89
-1290.17
-859.993
-959.563
-1138.9
46.8088
332.632
-258.255
-652.749
-1125.52
1098.36
-1143.44
-945.529
-1031.67
-510.149
-2288.37
-1331.13
-2207.01
-2284.15
-2658.78
-2640.61
-1941.35
-2643.75
-2822.04
-2857.11
-2532.99
-2130.1
-2730.11
-1124.27
-929.404
-1177.66
-1611.65
-1831.48
-1925.68
-1951.42
-1946.05
-2074.68
-2070
-2054.39
-1921.54
-1828.93
-1798.4
-1770.94
-1847.05
-1863.91
-2129.11
-2015.74
-1178.57
-820.182
-1025.72
-1267.92
-1351.04
-1125.36
-822.601
-1256.92
-1626.27
-1610.06
-1344.62
-1225.57
-345.896
44.5743
-401.296
-1133.7
-1167.49
-1883.09
-1873.31
-1230.62
-733.761
-718.23
-714.551
-361.729
638.089
893.754
650.004
106.538
-55.9077
871.688
971.866
853.784
1693.21
641.089
-147.683
-342.865
-1631.93
-1808.88
-1311.91
-689.32
-620.204
-534.167
-5.47529
1432.81
1964.14
2126.54
2112.92
2127.54
2163.95
2134.39
1997.17
1615.15
1135.91
793.277
163.435
-1159.5
-1728.33
-1355.15
-629.953
-481.423
-268.969
597.479
1607.82
2031.19
2281.59
2457.43
2549.13
2472.6
1867.44
2254.95
1625.59
1255.56
863.597
351.109
-721.868
-1663.02
-1396.14
-517.456
-126.678
598.503
1333.42
2180.72
2319.19
2218.6
2181.21
2198.7
2436.79
794.234
1442.14
1336.54
1313.77
1122.27
613.586
-514.061
-1667.8
-1355.72
-230.565
692.653
1752.43
2161.56
2665.33
2603.98
2786.87
2051.39
1541.82
1800.18
755.891
899.954
1015.72
1171.83
1247.29
947.283
-212.604
-1598.94
-1255.03
510.721
2002.62
2563.79
2614.47
2616.17
2097.3
2462.09
1204.77
732.224
1384.93
869.511
911.927
1043.56
1318.01
1369.36
1154.26
293.063
-1518.81
712.668
2041.99
1730.62
1778.71
1043.82
244.738
-664.471
-337.594
638.756
771.594
-224.257
-912.541
-1379.16
-1671.56
-1519.15
-1118.14
-827.979
-1190.47
-1165.17
-1214.13
-2159.56
-1968.12
-221.321
915.865
2743.26
2857.47
2514.39
1829.12
1567.72
893.705
-516.155
904.721
1079.14
-523.396
-1471.04
-1406.31
-667.598
-370.675
-332.708
-351.428
-359.804
-656.417
-873.29
-943.977
-813.835
-180.324
1126.7
2841.07
2829.35
2774.24
2274.21
1963.17
2542.78
1339.51
1202.14
730.151
-244.447
-1206.54
-725.3
-367.949
-373.103
-715.743
-936.521
-969.68
-895.772
-759.052
-538.197
-302.232
-57.081
1832.83
2857.26
2857.72
2818.63
2530.28
1954.89
1843.97
1720.73
1462.08
279.148
-702.396
-1120.46
-502.429
-239.223
-252.305
-543.12
-1001.42
-1221.61
-1289.68
-1173.37
-773.985
-377.484
227.459
2632.53
2855.51
2846.78
2847.69
2749.61
2394.05
2527.64
2428.52
1142.71
-10.6279
-504.882
-405.857
301.124
555.014
563.221
-80.4173
-403.995
-651.062
-787.976
-646.603
510.304
1773.71
2664.98
2845.87
2857.6
2857.68
2855.6
2849.85
2808.93
2856.05
2814.3
1569.62
685.45
390.298
851.8
1746.92
2040.45
1719.8
1118.1
1205.44
1736.3
1989.24
2086.27
2540.33
2760.31
2793.8
2823.55
2799.86
2663.22
2763.23
2485.5
2746.54
2726.67
2790.49
2345.55
2203.9
2098.09
2193.44
2623.19
2665.95
2433.32
2311.31
2640.95
2792.49
2807.93
2802.83
2817.79
2812.08
2720.21
2700.6
2446.31
1756.68
2038.86
1745.26
2278.23
2445.21
2857.48
2759.16
2676.07
2713.5
2839.25
2857.72
2857.51
2857.7
2855.14
2856.24
2838.72
2834.3
2844.01
2857.42
2843.05
2812.23
2458.81
2167.24
1431.72
1095.48
1157.66
1693.52
1959.41
2550.46
2857.04
2818.5
2857.63
2733.71
2675.32
2739.8
2763.62
2785.9
2797.35
2793
2796.23
2846.89
2855.79
2845.56
2844.13
1789.06
1367.06
981.286
684.455
837.085
1114.22
1178.3
1413.7
2405.33
2848.09
2856.67
2701.96
2511.93
2654
2662.81
2665.9
2692.52
2724.56
2759.06
2802.16
2807.77
2757.79
2583.3
917.922
715.423
646.409
364.278
496.217
604.875
496.274
623.67
1213.29
2441.34
2788.55
2618.79
2426.6
2494.46
2460.74
2455.52
2555.12
2609.35
2659.63
2716.62
2723.17
2562.61
1907.62
505.95
445.719
319.527
247.921
332.253
366.598
416.451
477.959
1147.53
2004.53
2557.62
2498.42
2237.94
2310.42
2406
2462.3
2547.79
2594.03
2623.65
2628.33
2480.99
1656.39
827.163
343.265
278.627
274.417
283.804
377.367
433.747
545.535
580.339
1303.76
1923.86
2184.67
2173.98
1923.22
2193.55
2318.52
2474.33
2526.31
2538.76
2505.2
2290.56
1512.07
592.149
229.84
311.671
378.533
442.804
551.72
673.056
714.543
883.522
1014.58
1500.79
1731.33
1841.36
1908.73
2020.63
2269.55
2387.04
2452.5
2480.81
2380.81
1985.85
1144.15
380.668
120.954
51.7327
271.429
415.987
598.378
812.718
1004.59
1069.52
1219.07
1375.49
1600.53
1739.82
1885.39
2027.45
2183.09
2304.93
2352.15
2367.14
2269.26
1768.77
708.873
229.634
59.5943
26.7372
12.1027
311.417
595.108
968.76
1196.01
1338.98
1431.68
1528.5
1638
1740.38
1821.41
1945.69
2069.13
2190.08
2242.27
2226.94
2030.99
1558.98
629.102
134.05
42.9984
22.3876
13.5545
6.24775
337.929
725.714
1018.99
1186.04
1305.98
1436.79
1576.2
1677.53
1763.39
1845.18
1951.14
2027.65
2066.13
1958.41
1682.77
974.827
355.687
85.9552
40.9412
24.0416
19.0128
12.4531
4.67019
338.864
729.231
992.984
1148.71
1313.6
1466.1
1562.18
1619.62
1661.75
1694.21
1683.57
1630.52
1333.03
1136.16
546.879
147.717
50.3772
34.8665
21.1221
16.9189
14.3608
12.5286
3.80015
339.728
714.044
949.561
1109.64
1275.37
1384.39
1401.22
1320.73
1327.06
1079.64
920.288
736.813
443.972
325.534
91.3256
40.0882
28.7195
23.2709
8.03222
4.359
3.22707
5.8139
1.9648
313.352
657.44
869.084
1013.03
1144.27
1214.88
1157.13
833.656
680.75
403.75
347.889
252.072
157.625
98.4846
41.5453
23.213
12.2618
9.35234
2.99923
1.2759
0.772516
0.782291
0.428842
307.603
591.612
761.206
839.369
914.565
935.943
705.121
388.449
241.55
151.228
146.821
113.198
85.6781
51.4622
24.6009
7.69434
3.98508
3.70826
1.77501
0.695575
0.342368
0.156827
0.137249
292.653
530.338
666.827
696.131
743.428
718.874
538.195
279.961
144.753
92.4327
86.6908
70.8922
56.6404
24.095
12.1484
3.65294
1.84665
1.4314
1.08662
0.43303
0.206113
0.0618985
0.0432344
271.62
473.812
566.087
573.581
626.854
612.751
458.489
302.472
141.498
73.3313
55.5476
35.6238
22.284
8.16385
5.02275
1.89777
0.879749
0.628964
0.602877
0.270037
0.1179
0.0257483
0.0108907
245.469
407.941
457.49
472.759
535.664
532.58
419.823
251.662
110.988
55.0309
35.0619
18.5636
13.561
6.57785
2.16384
0.774585
0.328674
0.191795
0.247803
0.153738
0.0628737
0.0114183
0.00332138
213.475
339.889
378.528
407.526
468.082
441.387
355.259
162.555
65.0339
34.6834
27.9607
24.4406
22.0747
6.2833
0.991774
0.329467
0.138656
0.0591152
0.0578333
0.0443646
0.0311378
0.00460567
0.00119395
173.696
277.258
306.877
337.542
409.047
400.915
338.354
172.933
84.7184
46.2134
36.1502
51.5703
24.8844
5.65414
0.499997
0.16381
0.0642696
0.022722
0.0124532
0.0104621
0.00743947
0.00130964
0.000344306
142.343
223.16
234.384
266.916
367.726
385.536
323.92
166.487
109
88.1558
76.2572
33.1461
7.99831
1.31356
0.245812
0.0767098
0.0273898
0.00971546
0.00343472
0.00160084
0.00125698
0.000363282
0.000102748
115.579
177.761
178.664
231.928
341.837
367.143
291.763
141.273
93.4173
81.3215
69.3919
6.03936
1.37944
0.367106
0.102533
0.028575
0.00727094
0.00466037
0.0017787
0.000401147
0.000205864
9.80626e-05
3.91878e-05
95.4138
133.474
137.166
196.98
318.854
346.535
246.071
72.2848
37.5021
18.696
3.08047
1.65585
0.795742
0.19342
0.0454268
0.0107761
0.00253179
0.00151812
0.000662282
0.000144785
5.16329e-05
2.31858e-05
4.33004e-06
83.8665
104.939
117.387
179.334
298.481
324.531
184.258
26.8576
13.827
7.13657
3.53584
1.32251
0.499397
0.128348
0.0349154
0.00708364
0.00136509
0.000455734
0.000145105
4.35629e-05
9.48868e-06
4.35657e-06
8.25256e-07
79.6309
93.986
114.681
178.737
283.928
298.978
134.635
19.5659
11.229
6.21457
2.9994
1.12027
0.399295
0.130975
0.0369314
0.00605039
0.000768667
0.000157934
4.06423e-05
1.21982e-05
2.6754e-06
1.07758e-06
1.7198e-07
79.5598
93.9217
118.953
182.268
270.85
277.213
114.167
22.3067
14.3806
9.03472
3.70702
1.11134
0.381136
0.120831
0.0376936
0.00329886
0.00037487
5.58085e-05
8.28357e-06
2.28626e-06
7.65246e-07
3.60394e-07
2.82469e-08
81.867
100.729
135.556
191.338
258.526
265.284
118.375
31.9934
26.3516
11.3148
4.08304
1.13079
0.270141
0.0600235
0.00707245
0.00140043
0.00014077
1.93395e-05
2.02662e-06
3.08175e-07
5.38427e-08
2.43462e-08
3.26598e-09
90.0652
126.748
166.128
202.164
245.909
255.67
142.299
59.415
42.8358
14.8821
4.26564
0.973745
0.196713
0.0521145
0.00457029
0.000634689
0.000102525
1.41329e-05
7.59521e-07
6.72951e-08
7.96624e-09
1.55432e-09
6.47559e-10
106.184
164.827
191.05
207.679
231.656
239.774
175.912
112.879
67.4922
20.6056
5.25588
0.825538
0.150252
0.0265241
0.00419774
0.000624918
5.56447e-05
3.96118e-06
5.43853e-07
2.96894e-08
3.10955e-09
6.20274e-10
4.56566e-10
117.578
185.667
201.985
208.107
213.901
215.341
175.703
119.399
35.3326
7.80177
2.24646
0.716642
0.172401
0.0277348
0.00419632
0.000473906
4.95533e-05
3.05941e-06
1.60308e-07
1.30121e-08
2.06364e-09
4.09272e-10
4.12001e-10
124.827
194.1
204.013
205.345
188.01
181.574
159.209
112.697
45.9494
16.5889
5.41923
1.3771
0.29045
0.0240734
0.00376068
0.000399814
2.92048e-05
2.35416e-06
1.00266e-07
3.25778e-09
6.33007e-10
3.39241e-10
4.58385e-10
129.173
196.588
202.167
194.915
142.153
137.378
106.554
63.5348
18.0726
5.02214
1.17255
0.223161
0.0317901
0.0044267
0.000319456
1.31602e-05
6.14751e-07
3.10211e-08
2.04269e-09
5.47515e-10
3.9563e-10
3.21052e-10
4.28372e-10
129.709
195.603
193.106
171.017
83.1354
89.5047
51.9789
32.1417
13.5675
4.92366
1.4892
0.271387
0.0393813
0.00205245
0.000165547
2.19172e-05
1.26407e-06
7.36524e-08
1.5925e-09
3.99268e-10
3.56522e-10
3.54703e-10
4.00178e-10
128.608
189.22
165.612
130.223
53.7118
57.814
32.5135
16.2331
5.28784
1.12721
0.190551
0.0321846
0.00326884
0.000320336
2.95572e-05
1.62208e-06
6.38639e-08
2.30644e-09
4.40195e-10
3.42879e-10
2.8831e-10
3.4106e-10
4.09273e-10
125.734
177.101
125.956
87.3349
51.0159
46.6356
29.3567
13.4897
4.38499
1.11561
0.176021
0.0199345
0.00167485
5.23493e-05
1.50376e-06
8.42211e-08
3.32689e-09
4.18366e-10
3.20142e-10
3.51065e-10
3.49246e-10
4.07454e-10
3.79259e-10
119.688
151.493
100.859
69.1631
49.4316
32.8628
13.5829
2.30425
0.483416
0.114876
0.0206678
0.00164424
0.000113472
8.0767e-06
2.70905e-07
3.43687e-09
3.42878e-10
3.20142e-10
4.26553e-10
4.15639e-10
3.91992e-10
5.60249e-10
3.73802e-10
-153.106
-224.417
-276.273
-305.558
-125.876
-128.759
-109.591
-25.5445
91.1808
205.599
323.567
447.788
907.934
1613.99
2055.29
2331.58
2772.67
2791.4
2728.85
2653.23
2676.67
2608.34
2505.48
2400.61
2663.55
2619.48
2574.38
2531.24
2790.05
2780.17
2773.48
2767.4
2850.71
2854.27
2856.54
2857.41
2363.44
2276.63
2182.55
2130.28
1297.66
1140.52
994.084
939.025
522.097
408.617
355.925
358.447
117.691
82.5612
82.5235
96.4006
26.9325
16.4081
14.9255
16.4104
4.27676
2.48211
1.74538
1.43027
1.56915
0.771483
0.392125
0.193953
1.24801
0.531274
0.175538
0.0812242
1.28822
0.761465
0.39867
0.0907405
0.852364
0.5416
0.733446
0.0583323
0.16605
0.087264
0.092487
0.0392245
0.0885722
0.0406929
0.0413688
0.0248105
0.0268177
0.0158398
0.0155424
0.00738394
0.0102563
0.0072148
0.00630435
0.00338642
0.00193002
0.00168863
0.000944645
0.000586431
0.00065916
0.000280235
9.13114e-05
9.34356e-05
0.000294922
8.12086e-05
1.59457e-05
7.5874e-06
7.70432e-05
5.30925e-05
8.7507e-06
2.11481e-06
1.19968e-05
7.09199e-06
1.84455e-06
4.07956e-07
1.01885e-06
9.64168e-07
4.82598e-07
2.16701e-07
2.2852e-07
1.54028e-07
6.69641e-08
2.32702e-08
4.3732e-08
1.01781e-08
3.9008e-09
1.63072e-09
2.41517e-08
4.74754e-09
1.18052e-09
4.64751e-10
2.14458e-09
7.79435e-10
3.21051e-10
2.8831e-10
3.54702e-10
3.18323e-10
3.01952e-10
3.46518e-10
3.38332e-10
2.8831e-10
3.46518e-10
3.89264e-10
3.5925e-10
3.28327e-10
3.79259e-10
3.81078e-10
4.12001e-10
3.67436e-10
3.4288e-10
2.61934e-10
4.00178e-10
3.01952e-10
2.59206e-10
1.58252e-10
3.14685e-10
2.07365e-10
9.09493e-11
7.09404e-11
3.46518e-10
1.0732e-10
1.45517e-11
8.0945e-11
2.19188e-10
8.09448e-11
4.91127e-11
3.63758e-12
3.00133e-10
1.58252e-10
3.81985e-11
1.28239e-10
-355.894
1914.94
2415.19
2545.78
2598.46
2103.42
1402.12
1529.92
885.237
369.445
-136.82
447.396
1196.02
1346.25
1627.43
1797.4
1198.03
-621.841
-1764.15
260.682
1058.77
1067.29
77.5949
1070.29
419.219
555.763
1199.08
1077.48
487.897
164.573
1134.38
1519.43
1726.26
2066.56
2218.51
1448.95
-376.161
-1640.91
916.136
1693.28
1216.38
617.394
1287.71
1385.19
1370.32
1675.15
856.728
678.273
840.08
1402.91
1694.62
2161.77
2239.09
1125.6
-494.669
-1043.68
-1340.56
2632.38
2750.11
2457.22
2098.45
2803.55
1932.1
1214.87
771.284
495.798
529.38
1096.29
1746.35
2055.18
2405.36
2142.85
834.936
-222.273
-715.625
-760.895
2529.61
2324.46
2017.91
1541.61
1009.52
646.569
505.638
473.183
757.558
989.097
1550.3
2178.66
2318.07
2189.28
930.644
-53.5153
-395.609
-910.996
-675.661
2216.8
1935.64
1671.03
1364.74
1182.85
1122.71
1116.56
1360.89
1737.37
1801.91
1546.25
1784.81
1844.23
1853.4
1642.34
1488.11
1538.25
31.8623
1494.11
2463.41
2376.24
2275.85
2232.7
2341.24
2442.35
2554.86
2635.46
2649.8
2465.35
1849.37
1597.09
1412.62
1587.41
2174.34
2720.93
2854.09
2253.33
2745.25
2759.03
2749.06
2749.84
2801.8
2853.25
2846.41
2712.17
2507.48
2374.36
2301.18
2612.2
2844.04
2578.19
2258.88
2834.21
2264.55
1778.44
2432.74
1279.64
2857.68
2852.51
2838.75
2720.33
2566.57
2283.96
2061.55
1526.51
1185.28
1012.15
1442.34
2083.4
2097.18
2421.42
1619.29
755.246
552.321
856.109
400.242
2111.21
2229
2189.85
1903.25
1665.3
1179.26
1119.42
770.831
550.296
387.156
639.596
853.541
736.673
819.464
566.815
265.471
215.816
243.998
129.334
935.447
957.543
822.706
1018.28
718.92
506.315
494.498
297.23
232.71
133.658
216.435
290.51
267.131
292.754
191.199
118.642
92.9864
73.1462
51.3362
415.928
344.6
305.182
356.118
261.522
178.774
177.031
90.1586
77.4231
50.85
84.8342
91.3408
129.534
138.755
112.714
69.0347
47.8106
36.6807
32.1152
114.831
88.5247
93.5086
88.4387
84.4019
54.0035
47.5717
26.4753
23.3527
16.4564
32.9303
45.8598
81.6236
87.7349
75.2443
48.2893
29.0828
21.9749
26.1868
18.6739
15.1272
19.0451
27.9319
23.4547
15.3179
9.90406
7.72828
8.6743
5.63878
10.3391
21.3805
52.0582
62.6098
50.0813
35.9149
18.2717
10.8506
22.5856
1.23096
1.61401
2.96191
6.36751
4.352
4.58044
3.94431
2.65952
3.93045
2.08
4.44433
17.4147
33.7592
38.0723
30.8081
25.2572
10.3566
5.07652
19.7227
0.0876192
0.0737645
0.566844
1.00653
0.375636
0.77373
1.30893
0.641864
1.48005
1.37324
0.555643
0.931987
3.12374
10.1871
12.8601
14.2636
5.01665
2.5088
17.3827
0.0312732
0.0109646
0.100187
0.15508
0.0691289
0.0935612
0.244759
0.0680298
0.258531
1.34289
0.215488
0.10791
0.168257
1.32913
3.06895
7.45045
2.6511
1.60849
15.6398
0.0237328
0.0045432
0.0107531
0.016319
0.0121736
0.0100502
0.0269363
0.011224
0.0328309
0.421504
0.0985412
0.0377141
0.0209456
0.0586935
0.535853
2.19518
1.05421
1.1237
14.4125
0.0185183
0.00211025
0.00127563
0.000655275
0.0018664
0.000799722
0.00172243
0.00134649
0.00697534
0.146358
0.0288952
0.00981888
0.00496328
0.00576531
0.186504
0.823522
0.352667
0.847487
13.494
0.0138826
0.00152708
0.000480023
7.70717e-05
0.000299562
6.91882e-05
0.000351479
0.000176474
0.0027738
0.0390848
0.00593196
0.0014984
0.00099231
0.00151749
0.142424
0.356166
0.154918
0.763378
12.7454
0.00970849
0.00104849
0.000341978
3.94027e-05
3.6881e-05
7.86631e-06
8.34321e-05
1.67154e-05
0.0012824
0.00593999
0.000537572
0.000173225
0.00027352
0.000732095
0.191311
0.130844
0.0841574
0.75077
12.0511
0.0043998
0.000452239
0.000294285
1.88977e-05
3.62495e-06
1.79441e-06
1.82095e-05
9.70769e-07
0.000183878
0.00029218
6.63308e-05
4.62826e-05
0.000166547
0.000513536
0.0047175
0.0100114
0.0644
0.827081
11.5058
0.00186173
0.000139108
0.000112853
6.44279e-06
1.28651e-06
4.15468e-07
2.31395e-07
1.49324e-07
3.61257e-05
1.78955e-05
7.84947e-06
2.72812e-05
0.00016016
0.000490537
0.00194846
0.00705162
0.0850274
0.89286
11.0872
0.000424691
3.8781e-05
2.97908e-05
1.78378e-06
3.31163e-07
5.34427e-08
1.83635e-08
3.53889e-08
1.25294e-05
2.62473e-06
4.15115e-06
2.57841e-05
0.000161863
0.000484211
0.00147585
0.00696966
0.0988307
0.893785
10.34
6.53546e-05
7.92302e-06
4.02663e-06
4.11714e-07
5.97782e-08
6.96034e-09
4.04906e-09
2.37717e-08
2.56164e-06
1.1391e-06
4.25898e-06
3.97299e-05
0.000183831
0.000483172
0.00118886
0.00754553
0.105069
0.807645
9.58267
2.67272e-06
1.39887e-06
2.89767e-07
1.49292e-08
2.49472e-09
5.21137e-10
2.54839e-09
4.11209e-08
5.66088e-07
1.2541e-06
7.89119e-06
5.61075e-05
0.000175687
0.000355654
0.000816372
0.00773045
0.107853
0.556035
8.79946
2.99946e-07
2.28251e-07
7.93452e-08
2.99585e-09
6.69387e-10
5.19321e-10
3.19323e-09
1.69874e-08
6.35059e-07
2.44517e-06
1.1043e-05
9.09834e-05
0.000171479
0.000260923
0.000499977
0.00683079
0.0849958
0.349664
8.01136
4.27561e-08
9.43957e-09
5.56245e-09
6.95762e-10
3.5925e-10
6.91215e-10
4.48744e-09
4.97644e-08
1.72179e-06
3.52837e-06
1.13409e-05
0.00011323
8.71884e-05
0.000123338
0.000278439
0.00861929
0.0813498
0.214427
7.11015
1.48538e-08
1.53613e-09
7.61246e-10
2.12821e-10
2.24645e-10
6.73025e-10
5.10407e-09
6.52003e-08
1.93455e-06
3.7775e-06
1.19805e-05
0.000135963
5.38013e-05
9.10051e-05
0.000209497
0.00798864
0.0406684
0.12471
6.40324
1.62071e-09
3.46517e-10
2.5193e-10
1.90994e-10
2.47382e-10
9.51331e-10
5.10224e-09
1.06621e-07
1.76189e-06
1.82046e-06
7.23892e-06
9.80641e-05
4.12877e-05
8.39946e-05
0.000203682
0.0108898
0.0238661
0.0654784
5.75163
5.07497e-10
2.5102e-10
2.25555e-10
1.51886e-10
3.14685e-10
1.08139e-09
4.42467e-09
1.12276e-07
7.08024e-07
4.51423e-07
3.66644e-06
1.81385e-05
3.77699e-05
9.30604e-05
0.000244641
0.00589993
0.0080067
0.0290591
5.18024
2.86491e-10
2.09184e-10
1.64619e-10
1.40062e-10
3.30146e-10
1.21327e-09
4.15821e-09
1.5414e-08
1.88763e-07
1.04572e-07
7.02412e-07
2.20318e-06
4.6383e-05
0.000160828
0.000299502
0.00149118
0.00347577
0.0129957
4.64861
2.41926e-10
1.58252e-10
1.17325e-10
1.80989e-10
2.73758e-10
1.01045e-09
1.79716e-09
7.69432e-09
4.12674e-08
3.87781e-08
2.08529e-07
1.01335e-06
8.46777e-05
0.000288745
0.000405466
0.000757869
0.00273165
0.00824996
4.1732
2.14641e-10
1.17325e-10
1.38243e-10
1.68257e-10
2.78305e-10
6.2937e-10
7.71251e-10
1.91357e-09
5.99902e-09
1.72213e-08
9.06063e-08
1.10394e-06
0.000151651
0.000395606
0.000493526
0.000642369
0.00340774
0.00862494
6.39689
1.90994e-10
8.91304e-11
1.51886e-10
1.10049e-10
2.11003e-10
3.14685e-10
4.00178e-10
5.09317e-10
7.58513e-10
1.58216e-08
8.43553e-08
1.65252e-06
0.000204077
0.000459425
0.000558998
0.000697569
0.00550786
0.00873233
3.67222
2.32831e-10
1.10049e-10
1.92813e-10
8.27639e-11
2.12822e-10
2.63753e-10
3.11957e-10
1.76442e-10
1.13682e-10
1.99516e-08
9.63748e-08
2.90689e-06
0.000274535
0.000509744
0.00060982
0.000747107
0.00602956
0.00872627
3.37088
1.74623e-10
2.02817e-10
2.49202e-10
1.03682e-10
3.11957e-10
2.67391e-10
3.16504e-10
9.27684e-11
8.09382e-11
2.71821e-08
1.18217e-07
4.05071e-06
0.000318968
0.000533595
0.000628068
0.000755587
0.00576233
0.0086492
2.83055
8.09449e-11
3.44699e-10
2.60116e-10
1.09139e-10
3.51065e-10
3.75621e-10
4.03816e-10
8.36734e-11
1.07312e-10
3.33284e-08
1.56329e-07
6.48193e-06
0.000392778
0.000559495
0.000631358
0.000759364
0.00489755
0.0081433
2.56202
2.11003e-10
4.07454e-10
2.32831e-10
1.28239e-10
4.30191e-10
4.42014e-10
4.71118e-10
7.7307e-11
9.09395e-11
3.95412e-08
2.11371e-07
9.8759e-06
0.000470332
0.000604899
0.000627611
0.000709556
0.00409454
0.0078104
1.32639
2.41926e-10
3.85626e-10
1.28239e-10
8.36734e-11
4.28372e-10
4.6839e-10
4.84761e-10
-2.63755e-11
1.50056e-10
4.38858e-08
3.26222e-07
1.28884e-05
0.0005043
0.00062177
0.00063857
0.000706776
0.00396736
0.00837473
0.657531
3.28328e-10
3.21052e-10
-6.91218e-11
2.11003e-10
4.72937e-10
4.72937e-10
5.47516e-10
-7.91262e-11
1.0367e-10
4.84041e-08
6.52347e-07
1.93947e-05
0.000535144
0.000633622
0.000643933
0.000705407
0.00374629
0.0117084
3.6044
3.91992e-10
2.78305e-10
-7.27598e-11
3.01952e-10
5.53882e-10
5.62068e-10
5.82077e-10
-1.94632e-10
9.54833e-11
5.47334e-08
1.36651e-07
3.78571e-06
0.000542731
0.000635665
0.000644663
0.000700754
0.00387602
0.00873644
2.91493
)
;

boundaryField
{
    leftWall
    {
        type            zeroGradient;
    }
    rightWall
    {
        type            zeroGradient;
    }
    lowerWall
    {
        type            zeroGradient;
    }
    atmosphere
    {
        type            zeroGradient;
    }
    defaultFaces
    {
        type            empty;
    }
}


// ************************************************************************* //
