/*--------------------------------*- C++ -*----------------------------------*\
| =========                 |                                                 |
| \\      /  F ield         | foam-extend: Open Source CFD                    |
|  \\    /   O peration     | Version:     4.1                                |
|   \\  /    A nd           | Web:         http://www.foam-extend.org         |
|    \\/     M anipulation  |                                                 |
\*---------------------------------------------------------------------------*/
FoamFile
{
    version     2.0;
    format      ascii;
    class       volVectorField;
    location    "0.95";
    object      U;
}
// * * * * * * * * * * * * * * * * * * * * * * * * * * * * * * * * * * * * * //

dimensions      [0 1 -1 0 0 0 0];

internalField   nonuniform List<vector> 
2268
(
(-0.0231025 5.9914e-05 0)
(-0.208825 0.0333691 0)
(-0.385403 -0.0324643 0)
(-0.356969 -0.0678734 0)
(-0.405412 -0.091466 0)
(-0.193335 -0.077462 0)
(-0.0223398 0.078059 0)
(-0.262277 -0.0327272 0)
(-0.0181472 -0.0826557 0)
(-0.131516 0.0846354 0)
(-0.188357 -0.00262593 0)
(-0.153273 0.0203312 0)
(-0.179295 -0.0217121 0)
(-0.0684906 -0.0368445 0)
(-0.0459145 0.00527781 0)
(-0.0238122 -0.0029634 0)
(0.0263572 0.00126999 0)
(0.02206 0.00927495 0)
(-0.010971 0.0044106 0)
(-0.0260205 -0.012677 0)
(-0.00471869 -0.0113571 0)
(0.00765355 0.00301328 0)
(-0.0320339 -0.01077 0)
(-0.0411099 0.112078 0)
(-0.30912 0.177767 0)
(-0.470675 0.108415 0)
(-0.445913 0.0608042 0)
(-0.533893 -0.0995908 0)
(-0.531389 -0.0350891 0)
(-0.552983 0.0156612 0)
(-0.616458 -0.00234407 0)
(-0.346034 -0.00501803 0)
(-0.306914 0.0286019 0)
(-0.216382 0.00660242 0)
(-0.202672 -0.0187214 0)
(-0.193389 -0.0204628 0)
(-0.107535 -0.143115 0)
(-0.0441336 -0.0269309 0)
(-0.0256283 -0.0144823 0)
(0.0169231 -0.0228764 0)
(0.0183924 0.00810809 0)
(0.0293911 0.00959789 0)
(0.0313635 0.0197782 0)
(0.011919 -0.0046185 0)
(0.0121375 0.00992214 0)
(0.0207212 -0.00212631 0)
(-0.105235 0.16226 0)
(-0.30451 0.147073 0)
(-0.409947 0.131583 0)
(-0.454606 0.117631 0)
(-0.503706 -0.108702 0)
(-0.444226 -0.0895609 0)
(-0.506393 -0.111188 0)
(-0.509981 -0.0786309 0)
(-0.146881 -0.0163935 0)
(-0.136647 -0.0866152 0)
(-0.165064 0.0552069 0)
(-0.278638 -0.0674563 0)
(-0.301686 0.0210624 0)
(-0.154392 -0.167113 0)
(-0.02759 -0.0165699 0)
(-0.0516508 -0.035112 0)
(0.011203 -0.00813701 0)
(0.019482 -0.000322568 0)
(0.0313672 0.0110096 0)
(0.0359234 -0.000321235 0)
(0.0157236 -0.0105478 0)
(0.00363743 0.00420664 0)
(0.00804101 0.0113776 0)
(-0.122931 0.175103 0)
(-0.253659 0.185338 0)
(-0.270431 0.211296 0)
(-0.340289 0.152862 0)
(-0.475987 0.00369871 0)
(-0.460507 -0.0911213 0)
(-0.583734 -0.159936 0)
(-0.623377 -0.0935388 0)
(-0.435621 -0.0109334 0)
(-0.317766 0.0249989 0)
(-0.207724 0.0774834 0)
(-0.299827 -0.0918145 0)
(-0.253671 -0.0849906 0)
(-0.109509 -0.1822 0)
(-0.017378 -0.111997 0)
(-0.0841761 -0.0240304 0)
(-0.00558488 -0.0512038 0)
(-0.00271457 0.00734059 0)
(0.0312263 0.00795199 0)
(0.0312762 0.00454675 0)
(0.016815 0.00866411 0)
(0.00641891 0.00915712 0)
(0.00779694 -0.00532588 0)
(-0.137447 0.248239 0)
(-0.2185 0.466619 0)
(-0.255962 0.27387 0)
(-0.458889 0.152563 0)
(-0.55272 0.128024 0)
(-0.473261 -0.171097 0)
(-0.537289 -0.29659 0)
(-0.58696 -0.145716 0)
(-0.461645 -0.183089 0)
(-0.328892 -0.0316486 0)
(-0.286088 0.0456354 0)
(-0.325526 -0.162605 0)
(-0.200475 -0.0976902 0)
(-0.072068 -0.163095 0)
(0.0284945 -0.100861 0)
(-0.0409173 -0.0170665 0)
(-0.0244875 -0.038155 0)
(0.00747449 -0.018274 0)
(0.020572 0.00771361 0)
(0.0185088 -0.0104925 0)
(-0.002397 0.0137644 0)
(-0.0111221 0.022918 0)
(-0.0151938 0.0366998 0)
(-0.0726791 0.275844 0)
(-0.182231 0.4359 0)
(-0.295064 0.321489 0)
(-0.348412 0.16782 0)
(-0.47108 0.152927 0)
(-0.423984 -0.187359 0)
(-0.403009 -0.314487 0)
(-0.535932 -0.121895 0)
(-0.543317 -0.191944 0)
(-0.302794 -0.061945 0)
(-0.313811 0.0845948 0)
(-0.390692 -0.144787 0)
(-0.180863 -0.225228 0)
(-0.13946 -0.222029 0)
(-0.0354704 -0.0219895 0)
(-0.0465794 -0.00119671 0)
(-0.0372307 -0.0894787 0)
(-0.00632593 -0.000316643 0)
(0.013498 0.0166887 0)
(0.0168493 0.0140332 0)
(0.012038 0.0219392 0)
(0.00755442 0.00334439 0)
(-0.0136055 -0.0352859 0)
(-0.0946271 0.307135 0)
(-0.099014 0.325872 0)
(-0.255073 0.347954 0)
(-0.300338 0.215714 0)
(-0.426586 0.0870477 0)
(-0.351098 -0.222183 0)
(-0.366957 -0.222766 0)
(-0.451287 -0.130116 0)
(-0.41766 -0.0598046 0)
(-0.292438 -0.0285972 0)
(-0.403132 -0.0493416 0)
(-0.426136 -0.0826658 0)
(-0.215185 -0.286262 0)
(-0.209722 -0.288779 0)
(-0.117438 -0.109866 0)
(-0.0747488 0.00188202 0)
(-0.014734 -0.218106 0)
(0.0244713 -0.0393545 0)
(-0.022878 -0.0157539 0)
(-0.00808728 -0.0203679 0)
(-0.00792034 0.02232 0)
(-0.0246751 0.062027 0)
(-0.0521502 0.0385603 0)
(-0.0755933 0.3514 0)
(-0.00564505 0.402192 0)
(-0.167337 0.421766 0)
(-0.266844 0.250778 0)
(-0.431739 0.107472 0)
(-0.328401 -0.241968 0)
(-0.382009 -0.266714 0)
(-0.452489 -0.285508 0)
(-0.346954 -0.0511189 0)
(-0.239057 -0.0733721 0)
(-0.384695 0.00282978 0)
(-0.3444 -0.196905 0)
(-0.188106 -0.137572 0)
(-0.23876 -0.365998 0)
(-0.148983 -0.102204 0)
(-0.00763072 -0.0556742 0)
(-0.00569629 -0.147821 0)
(0.0893281 0.0163971 0)
(-0.0344766 0.0521335 0)
(-0.0532588 0.0227095 0)
(0.00141442 0.0390994 0)
(0.0501658 -0.00291048 0)
(-0.00422205 -0.111317 0)
(-0.401223 0.112483 0)
(-0.496413 0.0431497 0)
(-0.735926 0.0742787 0)
(-1.01734 0.0535131 0)
(-1.07468 -0.0529454 0)
(-1.01281 -0.0262618 0)
(-1.02381 0.0168438 0)
(-1.14591 -0.161352 0)
(-1.26397 -0.0697774 0)
(-1.0845 -0.134557 0)
(-1.07255 -0.031803 0)
(-1.01218 0.122382 0)
(-0.873675 -0.0663733 0)
(-0.799529 -0.0161014 0)
(-0.688067 -0.118443 0)
(-0.538776 -0.0756649 0)
(-0.471886 -0.108498 0)
(-0.367456 0.0427186 0)
(-0.0523149 -0.055342 0)
(-0.335521 0.30463 0)
(-0.383126 0.107129 0)
(-0.604464 0.101265 0)
(-0.91595 0.0784654 0)
(-0.977328 0.0317006 0)
(-0.788117 0.0288503 0)
(-0.991232 -0.0233308 0)
(-1.14905 -0.14635 0)
(-1.2555 0.0150154 0)
(-1.01363 0.0906821 0)
(-0.934661 0.0568751 0)
(-1.00735 0.143716 0)
(-0.778773 0.0137198 0)
(-0.613439 -0.0540802 0)
(-0.583732 -0.111541 0)
(-0.409087 -0.017999 0)
(-0.252711 -0.147717 0)
(-0.290455 -0.0390801 0)
(0.00591417 -0.128529 0)
(-0.432928 0.687778 0)
(-0.365588 0.318197 0)
(-0.230111 0.25283 0)
(-0.722177 -0.0384315 0)
(-0.896208 0.246714 0)
(-0.711524 -0.0511892 0)
(-0.779245 -0.179428 0)
(-0.92473 -0.104032 0)
(-0.947301 -0.0525728 0)
(-0.850039 0.122599 0)
(-0.66931 -0.0906186 0)
(-0.672268 -0.178103 0)
(-0.543975 0.0613474 0)
(-0.178032 -0.182615 0)
(-0.15112 -0.306984 0)
(-0.33509 -0.0353281 0)
(-0.0362187 -0.137164 0)
(-0.165965 -0.0787263 0)
(0.0508502 -0.171938 0)
(-0.43464 0.756294 0)
(-0.264713 0.608519 0)
(-0.461548 0.276107 0)
(-0.862489 0.21588 0)
(-0.968945 0.27795 0)
(-0.753015 0.0109706 0)
(-0.689398 -0.138308 0)
(-0.813427 -0.227155 0)
(-0.751551 -0.0169762 0)
(-0.546678 -0.0149917 0)
(-0.54409 0.0278667 0)
(-0.319079 -0.0738215 0)
(-0.238155 -0.145528 0)
(0.0842953 -0.100535 0)
(0.116063 -0.393526 0)
(0.0800615 -0.0279209 0)
(0.0980132 -0.271233 0)
(-0.0614547 -0.0501307 0)
(0.0712687 -0.191188 0)
(-0.412471 0.956442 0)
(-0.410533 0.709235 0)
(-0.508526 0.274815 0)
(-0.808187 0.173192 0)
(-0.837393 0.13779 0)
(-0.542057 0.12784 0)
(-0.470074 -0.115959 0)
(-0.526416 -0.183745 0)
(-0.525353 0.0801255 0)
(-0.251017 -0.185331 0)
(-0.27109 0.03913 0)
(-0.00142183 -0.16936 0)
(0.0723005 -0.190996 0)
(0.230114 -0.243862 0)
(0.247252 -0.326023 0)
(0.218604 -0.168324 0)
(0.154331 -0.332006 0)
(0.154629 -0.0945936 0)
(0.0902287 -0.150121 0)
(-0.481674 1.08245 0)
(-0.403691 0.94502 0)
(-0.554816 0.354218 0)
(-0.638258 0.165178 0)
(-0.660002 0.225019 0)
(-0.250656 -0.0765008 0)
(-0.26094 -0.255653 0)
(-0.305199 -0.178698 0)
(-0.180319 -0.249642 0)
(-0.0514623 -0.119252 0)
(-0.12292 -0.0669685 0)
(0.109158 -0.213772 0)
(0.211606 -0.18858 0)
(0.320261 -0.232017 0)
(0.303646 -0.18316 0)
(0.32906 -0.125627 0)
(0.290732 -0.109349 0)
(0.224372 -0.068835 0)
(0.0904854 -0.0978581 0)
(-0.379766 1.40356 0)
(-0.53044 1.15278 0)
(-0.578328 0.365754 0)
(-0.485747 0.140334 0)
(-0.596386 0.237466 0)
(-0.200764 -0.146686 0)
(-0.208512 -0.365081 0)
(-0.132627 -0.0728268 0)
(-0.0670162 -0.285075 0)
(0.0760671 -0.119341 0)
(0.0417336 0.0175259 0)
(0.200257 -0.330903 0)
(0.272408 -0.297317 0)
(0.365222 -0.269636 0)
(0.356815 -0.158983 0)
(0.345684 -0.121308 0)
(0.260522 0.019323 0)
(0.217732 -0.0586141 0)
(0.096852 -0.0810039 0)
(-0.470116 1.45111 0)
(-0.714901 0.990507 0)
(-0.692827 0.295063 0)
(-0.359278 0.114882 0)
(-0.379553 0.113962 0)
(-0.163699 -0.1309 0)
(-0.217609 -0.25681 0)
(-0.106889 -0.262113 0)
(-0.0528905 -0.408847 0)
(0.075024 -0.179436 0)
(0.240717 -0.0545295 0)
(0.251112 -0.358943 0)
(0.338008 -0.258936 0)
(0.36864 -0.257601 0)
(0.353288 -0.18099 0)
(0.338579 -0.0846396 0)
(0.213356 0.0395427 0)
(0.205523 -0.0171628 0)
(0.115295 -0.0325979 0)
(-0.16323 0.368918 0)
(0.00382055 0.404618 0)
(-0.120401 0.493646 0)
(-0.138576 0.376441 0)
(-0.164222 0.214547 0)
(-0.109488 -0.193336 0)
(-0.477151 -0.242653 0)
(-0.521278 -0.249942 0)
(-0.455991 -0.0641577 0)
(-0.382991 -0.146875 0)
(-0.354106 -0.0866295 0)
(-0.282479 -0.24595 0)
(-0.0407791 0.0641372 0)
(-0.24596 -0.427503 0)
(-0.227903 -0.228474 0)
(-0.119544 -0.26373 0)
(-0.0705876 -0.0958176 0)
(-0.00780013 -0.082137 0)
(0.0677552 -0.034987 0)
(0.0638297 -0.0817556 0)
(0.164568 -0.117648 0)
(-0.0235026 0.19229 0)
(-0.201804 0.201325 0)
(-0.159237 0.407461 0)
(0.114762 0.40418 0)
(-0.136721 0.446578 0)
(-0.00697745 0.357837 0)
(-0.0617621 0.282464 0)
(0.0567652 -0.0427654 0)
(-0.173171 -0.0769662 0)
(-0.454382 -0.0119064 0)
(-0.523788 -0.108971 0)
(-0.414681 -0.186632 0)
(-0.325259 -0.30653 0)
(-0.37054 -0.243407 0)
(-0.525933 -0.254317 0)
(-0.518555 -0.327436 0)
(-0.339138 -0.254384 0)
(-0.401046 -0.290762 0)
(-0.434909 -0.244003 0)
(-0.428726 -0.13949 0)
(-0.430449 -0.00909192 0)
(-0.491614 0.0299295 0)
(-0.458059 0.146229 0)
(-0.746132 0.238075 0)
(-0.809746 0.359284 0)
(-0.0786571 0.398175 0)
(0.101347 0.439276 0)
(-0.113169 0.590694 0)
(0.240214 0.375349 0)
(0.0474063 0.141573 0)
(-0.0258429 -0.0709147 0)
(-0.0416536 -0.0108891 0)
(-0.257122 0.0710471 0)
(-0.343141 -0.0615691 0)
(-0.488604 -0.00802732 0)
(-0.408905 -0.100766 0)
(-0.423002 -0.128585 0)
(-0.533116 -0.14922 0)
(-0.5328 -0.0674705 0)
(-0.607476 -0.100623 0)
(-0.643739 -0.0923808 0)
(-0.634593 -0.0978035 0)
(-0.679864 0.0420164 0)
(-0.809814 -0.0183886 0)
(-0.833531 -0.0996376 0)
(-0.760682 0.0720687 0)
(-0.813672 0.171379 0)
(-0.842212 0.38088 0)
(-0.0483312 0.353746 0)
(0.0466801 0.431276 0)
(-0.0771371 0.831345 0)
(0.0536152 0.359161 0)
(-0.0479457 0.198337 0)
(-0.147366 0.0588774 0)
(-0.216053 0.07576 0)
(-0.294616 0.130405 0)
(-0.345479 -0.0618535 0)
(-0.393735 -0.0292898 0)
(-0.492527 -0.0287923 0)
(-0.541975 -0.157934 0)
(-0.613619 -0.159378 0)
(-0.600427 -0.112863 0)
(-0.606836 -0.0675953 0)
(-0.664773 -0.120682 0)
(-0.552339 -0.163254 0)
(-0.737444 -0.00763194 0)
(-1.05087 0.152809 0)
(-0.791397 0.0765609 0)
(-0.683058 0.099222 0)
(-0.732097 0.274182 0)
(-1.01402 0.336611 0)
(-0.148772 0.421574 0)
(-0.0822505 0.513128 0)
(0.0511457 0.685619 0)
(0.025816 0.361225 0)
(-0.0591666 0.302467 0)
(-0.287026 0.105458 0)
(-0.339388 0.102934 0)
(-0.541977 0.170824 0)
(-0.510627 0.141554 0)
(-0.380519 0.137905 0)
(-0.57183 0.0916139 0)
(-0.562338 -0.140317 0)
(-0.544148 -0.137884 0)
(-0.489542 -0.105061 0)
(-0.777004 -0.19769 0)
(-0.91178 -0.24796 0)
(-0.579926 -0.114329 0)
(-0.432103 -0.207104 0)
(-0.922982 0.0904695 0)
(-1.05756 0.284484 0)
(-0.829129 0.241897 0)
(-0.78757 0.193082 0)
(-0.913467 0.128692 0)
(-0.131492 0.574628 0)
(-0.0742539 0.740389 0)
(-0.0344504 0.680303 0)
(-0.10418 0.435972 0)
(-0.164816 0.546622 0)
(-0.181951 0.38817 0)
(-0.136354 0.245873 0)
(-0.430449 0.128245 0)
(-0.434867 0.340017 0)
(-0.349735 0.264454 0)
(-0.602842 0.133694 0)
(-0.528255 -0.0844111 0)
(-0.324597 -0.0677482 0)
(-0.4974 -0.16561 0)
(-0.715176 -0.230913 0)
(-0.683669 -0.00404565 0)
(-0.576405 0.0726944 0)
(-0.716895 0.0564282 0)
(-0.783555 0.0207628 0)
(-1.03099 0.3697 0)
(-1.09251 0.429784 0)
(-1.03619 0.328579 0)
(-1.01004 0.313287 0)
(-0.00913731 0.573695 0)
(0.0355965 0.574599 0)
(-0.132251 0.731862 0)
(-0.0432497 0.510916 0)
(0.0858554 0.86536 0)
(-0.298914 0.672122 0)
(-0.353628 0.300457 0)
(-0.41003 0.184864 0)
(-0.39803 0.273715 0)
(-0.435113 0.000780967 0)
(-0.711624 -0.0797765 0)
(-0.516011 0.063831 0)
(-0.367036 -0.112779 0)
(-0.526913 -0.1645 0)
(-0.705088 -0.0117396 0)
(-0.717431 0.138932 0)
(-0.70764 0.089395 0)
(-0.88172 0.185477 0)
(-1.07553 0.25828 0)
(-1.2114 0.32716 0)
(-1.20508 0.391254 0)
(-1.16572 0.409556 0)
(-1.08157 0.253905 0)
(-0.00215516 0.506459 0)
(0.110353 0.299436 0)
(0.0561508 0.85873 0)
(0.0346096 0.772639 0)
(-0.0850483 0.960236 0)
(-0.302123 0.622622 0)
(-0.422043 0.374051 0)
(-0.396391 0.28095 0)
(-0.468769 0.292115 0)
(-0.514685 0.17907 0)
(-0.549885 0.250349 0)
(-0.636591 0.227654 0)
(-0.620835 0.0351838 0)
(-0.705731 -0.0127561 0)
(-0.706361 -0.0844506 0)
(-0.774345 0.144717 0)
(-0.843355 0.188949 0)
(-1.02208 0.313628 0)
(-1.17473 0.343274 0)
(-1.22235 0.380716 0)
(-1.13117 0.35626 0)
(-0.992163 0.193879 0)
(-0.9761 0.0665299 0)
(0.0976829 0.527607 0)
(0.275409 0.443681 0)
(0.277311 0.753975 0)
(0.134737 0.876414 0)
(-0.0591071 0.993753 0)
(-0.362829 0.689344 0)
(-0.35878 0.455827 0)
(-0.363526 0.435107 0)
(-0.40644 0.308244 0)
(-0.382268 0.350183 0)
(-0.450711 0.278799 0)
(-0.504943 0.208946 0)
(-0.734823 -0.0857941 0)
(-1.131 -0.06012 0)
(-0.880131 0.14733 0)
(-0.847851 0.210672 0)
(-1.07348 0.339344 0)
(-1.09391 0.427304 0)
(-1.15817 0.404898 0)
(-1.14623 0.359982 0)
(-1.00771 0.138025 0)
(-0.879979 -0.0701991 0)
(-0.855934 -0.110921 0)
(0.0606135 0.599556 0)
(0.0946772 0.582036 0)
(0.183313 0.605662 0)
(0.0168546 0.932283 0)
(-0.0583312 0.857592 0)
(-0.297649 0.724844 0)
(-0.285726 0.683735 0)
(-0.323056 0.526179 0)
(-0.37012 0.285618 0)
(-0.375034 0.273989 0)
(-0.296508 0.210568 0)
(-0.388062 0.094429 0)
(-0.742059 -0.106105 0)
(-0.916723 0.290594 0)
(-0.878712 0.401075 0)
(-1.0365 0.381067 0)
(-1.00629 0.407825 0)
(-0.979788 0.466703 0)
(-1.00349 0.48538 0)
(-0.975788 0.227807 0)
(-0.836195 0.0405494 0)
(-0.752825 -0.0107697 0)
(-0.755314 -0.0692127 0)
(0.171159 0.344348 0)
(-0.10768 0.435108 0)
(0.0298132 0.689124 0)
(0.105728 1.24381 0)
(0.0469522 0.959334 0)
(-0.0230565 0.919692 0)
(0.170268 0.946499 0)
(-0.127243 0.838153 0)
(-0.210819 0.443117 0)
(-0.260442 0.21432 0)
(-0.439729 0.27315 0)
(-0.424465 0.211723 0)
(-0.563188 0.281802 0)
(-0.941439 0.438518 0)
(-1.01591 0.382127 0)
(-1.08897 0.423453 0)
(-0.98416 0.57477 0)
(-0.819819 0.456973 0)
(-1.04626 0.393876 0)
(-1.12623 0.270817 0)
(-0.639337 -0.016334 0)
(-0.570262 -0.183826 0)
(-0.633738 -0.223216 0)
(0.124647 0.402105 0)
(-0.0212023 0.365839 0)
(0.183686 1.01909 0)
(0.0373972 1.10972 0)
(0.0145699 0.95766 0)
(0.138827 0.790319 0)
(0.189457 0.924442 0)
(0.127114 0.645407 0)
(-0.122621 0.440583 0)
(-0.156338 0.284998 0)
(-0.372128 0.357517 0)
(-0.54126 0.458757 0)
(-0.835677 0.358543 0)
(-0.926141 0.472618 0)
(-0.958526 0.422418 0)
(-0.979414 0.538969 0)
(-0.925459 0.616261 0)
(-0.896862 0.383412 0)
(-0.883444 0.302247 0)
(-0.856998 0.324545 0)
(-0.66746 0.166123 0)
(-0.647326 -0.147451 0)
(-0.559979 -0.263404 0)
(0.11906 0.189496 0)
(0.126064 0.202804 0)
(-0.00447613 0.564985 0)
(-0.0955936 0.641632 0)
(0.0381161 0.684894 0)
(0.254358 0.738114 0)
(0.0509183 0.904637 0)
(-0.0310093 0.750567 0)
(-0.165089 0.373294 0)
(-0.328809 0.466201 0)
(-0.520764 0.45684 0)
(-0.601773 0.540697 0)
(-0.796595 0.560301 0)
(-1.0159 0.649687 0)
(-1.03366 0.590262 0)
(-0.879326 0.767901 0)
(-0.976198 0.565192 0)
(-0.834031 0.381624 0)
(-0.681422 0.322767 0)
(-0.669439 0.0207902 0)
(-0.462578 -0.183882 0)
(-0.14599 -0.436195 0)
(-0.0904545 -0.584739 0)
(0.00786609 0.259086 0)
(-0.232821 0.430207 0)
(-0.348913 0.703236 0)
(-0.462629 0.731596 0)
(-0.268991 0.731056 0)
(-0.139652 0.727876 0)
(-0.362873 0.669022 0)
(-0.389158 0.716651 0)
(-0.321849 0.611995 0)
(-0.373245 0.591246 0)
(-0.699066 0.636218 0)
(-0.807126 0.67324 0)
(-0.854238 0.574121 0)
(-0.917112 0.822622 0)
(-0.930766 0.88819 0)
(-0.975225 0.804091 0)
(-1.09183 0.651848 0)
(-0.807114 0.463518 0)
(-0.510327 0.100539 0)
(-0.503277 -0.180143 0)
(-0.117115 -0.364727 0)
(-0.196762 -0.38297 0)
(-0.162212 -0.678718 0)
(-0.0770043 0.58051 0)
(-0.149654 0.491729 0)
(-0.387008 0.6445 0)
(-0.553418 0.690238 0)
(-0.594103 0.871417 0)
(-0.618443 0.892413 0)
(-0.665226 0.902392 0)
(-0.598473 0.792559 0)
(-0.623404 0.989102 0)
(-0.571334 0.781163 0)
(-0.850953 0.892979 0)
(-1.00467 0.79491 0)
(-0.930847 0.703766 0)
(-0.891219 0.753842 0)
(-1.08499 0.708829 0)
(-1.11256 0.567141 0)
(-1.07295 0.492826 0)
(-0.614795 0.279683 0)
(-0.405255 -0.281622 0)
(-0.0775593 -0.349586 0)
(-0.118735 -0.45515 0)
(-0.0794115 -0.422655 0)
(-0.0473019 -0.248353 0)
(-0.17761 0.925494 0)
(-0.420125 0.670467 0)
(-0.791582 0.843686 0)
(-0.983277 0.816789 0)
(-1.03695 0.794051 0)
(-1.0604 0.779035 0)
(-1.11521 0.76914 0)
(-0.987789 0.71766 0)
(-0.978764 0.740665 0)
(-1.11839 0.863672 0)
(-1.28301 0.995847 0)
(-1.49249 0.86396 0)
(-1.15123 0.723848 0)
(-0.988817 0.526458 0)
(-0.989277 0.405852 0)
(-0.819998 0.268495 0)
(-0.706198 0.158746 0)
(-0.193925 -0.19405 0)
(-0.107702 -0.344582 0)
(-0.0125404 -0.433829 0)
(-0.0763383 -0.437611 0)
(-0.160191 -0.419552 0)
(-0.0793673 -0.470593 0)
(-0.225892 1.67431 0)
(-0.378821 1.00517 0)
(-1.00822 1.13712 0)
(-1.27673 0.920555 0)
(-1.2441 0.788251 0)
(-1.32583 0.846416 0)
(-1.54635 0.993135 0)
(-1.53905 1.07039 0)
(-1.34464 0.835244 0)
(-1.23882 0.902519 0)
(-1.3995 0.796832 0)
(-1.47311 0.822533 0)
(-1.00158 0.77453 0)
(-0.830724 0.551038 0)
(-0.79075 0.448071 0)
(-0.557993 0.166546 0)
(-0.312294 -0.166193 0)
(-0.0242182 -0.321923 0)
(-0.185643 -0.565528 0)
(-0.240914 -0.565941 0)
(-0.220294 -0.700822 0)
(-0.2818 -0.634866 0)
(-0.251705 -0.504607 0)
(-0.283061 2.2904 0)
(-0.30135 1.26962 0)
(-1.02437 1.05482 0)
(-1.33443 1.03859 0)
(-1.31991 1.06036 0)
(-1.34949 1.01969 0)
(-1.51922 1.0373 0)
(-1.51986 1.1182 0)
(-1.35398 1.02341 0)
(-1.13134 0.793802 0)
(-1.11343 0.596731 0)
(-1.01412 0.639237 0)
(-0.780229 0.649971 0)
(-0.778967 0.400878 0)
(-0.536949 0.257638 0)
(-0.297308 -0.143037 0)
(-0.0610664 -0.336951 0)
(-0.122369 -0.562846 0)
(-0.208553 -0.762687 0)
(-0.218283 -0.79998 0)
(-0.24918 -0.783015 0)
(-0.271619 -0.799823 0)
(-0.268626 -0.656378 0)
(-0.356112 3.03165 0)
(-0.520309 1.55674 0)
(-0.847941 1.14894 0)
(-0.962529 1.1715 0)
(-1.29397 1.35587 0)
(-1.56677 1.19852 0)
(-1.23324 0.973012 0)
(-1.05423 0.872085 0)
(-1.11765 0.953321 0)
(-0.805301 0.666995 0)
(-0.838449 0.545915 0)
(-0.794953 0.475894 0)
(-0.748837 0.432817 0)
(-0.8789 0.352844 0)
(-0.384072 -0.064871 0)
(-0.450724 -0.385184 0)
(-0.383312 -0.474593 0)
(-0.316466 -0.530275 0)
(-0.182804 -0.36858 0)
(-0.25847 -0.440352 0)
(-0.124174 -0.521362 0)
(-0.215203 -0.615821 0)
(-0.167282 -0.412973 0)
(0.060177 3.83773 0)
(-0.61441 1.7326 0)
(-0.836007 1.42558 0)
(-0.652938 1.2613 0)
(-1.17101 1.04535 0)
(-1.40612 1.16358 0)
(-1.12427 1.21207 0)
(-0.972713 0.917357 0)
(-0.856937 0.831061 0)
(-0.655854 0.57807 0)
(-0.766021 0.616112 0)
(-0.705341 0.435562 0)
(-0.704991 0.228359 0)
(-0.754549 0.132201 0)
(-0.349397 -0.243369 0)
(-0.356502 -0.426769 0)
(-0.198188 -0.414427 0)
(-0.268958 -0.354366 0)
(-0.276943 -0.320959 0)
(-0.346569 -0.345757 0)
(-0.191162 -0.408778 0)
(-0.130751 -0.382942 0)
(-0.0783801 -0.301187 0)
(-0.293126 4.24658 0)
(-0.501271 2.16535 0)
(-0.469861 1.79627 0)
(-0.666238 1.30649 0)
(-0.921257 1.03577 0)
(-1.02813 1.06735 0)
(-0.970208 1.05149 0)
(-0.835111 0.734545 0)
(-0.71445 0.597515 0)
(-0.494986 0.611441 0)
(-0.532153 0.697566 0)
(-0.525027 0.446263 0)
(-0.611564 0.358692 0)
(-0.402376 -0.0345212 0)
(-0.306558 -0.398348 0)
(-0.21642 -0.328193 0)
(-0.229184 -0.499514 0)
(-0.26393 -0.450211 0)
(-0.233637 -0.471269 0)
(-0.190454 -0.454955 0)
(-0.114537 -0.413396 0)
(-0.0781558 -0.352799 0)
(-0.0449451 -0.281717 0)
(-0.48726 5.24763 0)
(-0.492127 3.40333 0)
(-0.515254 2.09278 0)
(-0.685994 1.455 0)
(-0.85117 1.32932 0)
(-0.912358 1.08886 0)
(-0.842466 0.816219 0)
(-0.650461 0.700182 0)
(-0.44224 0.59794 0)
(-0.404379 0.799478 0)
(-0.548703 0.743741 0)
(-0.427279 0.546251 0)
(-0.291564 0.227622 0)
(-0.0597127 -0.232125 0)
(-0.117468 -0.440639 0)
(-0.201377 -0.478209 0)
(-0.147702 -0.560932 0)
(-0.103651 -0.376883 0)
(-0.140208 -0.336443 0)
(-0.123249 -0.444082 0)
(-0.106093 -0.42614 0)
(0.000836871 -0.460772 0)
(0.028744 -0.472736 0)
(-0.320198 5.72844 0)
(-0.514789 3.42513 0)
(-0.856435 2.13878 0)
(-0.662153 1.57622 0)
(-0.778754 1.31899 0)
(-0.946226 1.14453 0)
(-0.708886 1.01198 0)
(-0.623819 0.963595 0)
(-0.574697 1.00673 0)
(-0.370065 0.944804 0)
(-0.567366 0.791293 0)
(-0.463294 0.59184 0)
(-0.366317 0.0252442 0)
(-0.109085 -0.346741 0)
(-0.145658 -0.591208 0)
(-0.10401 -0.531876 0)
(-0.150102 -0.557528 0)
(-0.0139328 -0.435215 0)
(-0.0291017 -0.517729 0)
(-0.166991 -0.420949 0)
(-0.142137 -0.359161 0)
(-0.123283 -0.449017 0)
(-0.0469243 -0.548121 0)
(-0.0312763 5.98531 0)
(-0.567124 3.23205 0)
(-0.934884 2.0183 0)
(-0.566922 1.59223 0)
(-0.734635 1.25376 0)
(-0.749603 1.17532 0)
(-0.697387 1.20113 0)
(-0.889016 1.0527 0)
(-0.643134 0.944442 0)
(-0.735444 0.836849 0)
(-0.958059 0.826465 0)
(-0.492373 0.387976 0)
(-0.255045 -0.248733 0)
(-0.260862 -0.434046 0)
(-0.19167 -0.461441 0)
(-0.0602908 -0.53888 0)
(-0.0857622 -0.53695 0)
(-0.0854214 -0.522989 0)
(0.0504081 -0.700162 0)
(0.0176628 -0.564653 0)
(-0.19957 -0.574437 0)
(-0.162776 -0.490939 0)
(-0.172888 -0.466041 0)
(0.0849208 6.13946 0)
(-0.597158 3.24464 0)
(-0.875685 2.03939 0)
(-0.488918 1.59114 0)
(-0.678692 1.4313 0)
(-0.674894 1.51148 0)
(-0.737958 1.10668 0)
(-0.86296 0.867916 0)
(-0.701582 0.641355 0)
(-0.854184 0.519286 0)
(-0.913488 0.641171 0)
(-0.466958 -0.0389784 0)
(-0.30343 -0.360166 0)
(-0.154112 -0.400081 0)
(-0.158293 -0.434115 0)
(-0.0783414 -0.553945 0)
(-0.0801286 -0.558193 0)
(-0.102576 -0.597346 0)
(-0.0822487 -0.776844 0)
(-0.0862414 -0.698553 0)
(-0.118409 -0.690356 0)
(-0.0657189 -0.570319 0)
(-0.0856251 -0.501768 0)
(0.129882 6.11675 0)
(-0.50952 3.35173 0)
(-0.713512 2.10717 0)
(-0.338457 1.47024 0)
(-0.528369 1.37251 0)
(-0.65232 1.45175 0)
(-0.993622 1.06066 0)
(-1.11171 0.934684 0)
(-0.788301 0.663187 0)
(-0.807667 0.50248 0)
(-0.848527 0.467132 0)
(-0.195662 -0.141717 0)
(-0.0283109 -0.27185 0)
(-0.134427 -0.649334 0)
(-0.23762 -0.518439 0)
(-0.087338 -0.592244 0)
(-0.0988877 -0.504427 0)
(-0.217076 -0.520071 0)
(-0.0821963 -0.528501 0)
(0.0506069 -0.726909 0)
(-0.0768629 -0.544993 0)
(-0.0183152 -0.524505 0)
(-0.0448917 -0.493076 0)
(-0.00494487 5.82895 0)
(-0.484884 3.40561 0)
(-0.543611 2.14148 0)
(-0.311116 1.41434 0)
(-0.37638 1.27546 0)
(-0.54584 1.27874 0)
(-0.938472 0.94333 0)
(-0.845399 0.758545 0)
(-0.558335 0.589717 0)
(-0.718869 0.369317 0)
(-0.761953 0.306764 0)
(0.06104 -0.33745 0)
(-0.0900532 -0.56044 0)
(-0.209421 -0.763333 0)
(-0.0232424 -0.628483 0)
(-0.0137644 -0.491966 0)
(0.0393431 -0.62609 0)
(-0.274876 -0.536393 0)
(-0.280629 -0.43685 0)
(-0.134725 -0.57976 0)
(0.0614827 -0.676722 0)
(0.00786506 -0.540822 0)
(-0.0716475 -0.464371 0)
(-0.190818 4.95992 0)
(-0.307765 3.4417 0)
(-0.282694 2.06198 0)
(-0.231481 1.4521 0)
(-0.348134 1.36288 0)
(-0.551079 1.32467 0)
(-0.833216 0.982923 0)
(-0.300864 0.523334 0)
(-0.381744 0.288625 0)
(-0.47795 0.133227 0)
(-0.152758 0.0642392 0)
(-0.104075 -0.550716 0)
(-0.278878 -0.681798 0)
(-0.0734686 -0.59549 0)
(0.0964507 -0.650632 0)
(-0.0768176 -0.836382 0)
(-0.176473 -0.920154 0)
(-0.0115257 -0.806187 0)
(-0.0945995 -0.748425 0)
(-0.238209 -0.528096 0)
(-0.0104779 -0.598674 0)
(0.153723 -0.447238 0)
(0.000281303 -0.515779 0)
(0.18306 4.15488 0)
(0.180139 3.55181 0)
(0.111154 2.2211 0)
(-0.0515302 1.52916 0)
(-0.203293 1.39971 0)
(-0.495897 1.36711 0)
(-0.754991 1.14022 0)
(-0.178419 0.441788 0)
(-0.539388 0.288383 0)
(-0.763239 0.122401 0)
(-0.494266 -0.341419 0)
(-0.27935 -0.463192 0)
(-0.0563166 -0.428382 0)
(-0.0394312 -0.516869 0)
(-0.11149 -0.650144 0)
(-0.206835 -0.981699 0)
(-0.0267538 -0.64395 0)
(0.0487062 -0.790951 0)
(-0.0320239 -0.89492 0)
(-0.0254346 -0.63964 0)
(0.0659596 -0.519079 0)
(-0.0752767 -0.641395 0)
(-0.233769 -0.791777 0)
(0.162982 4.24002 0)
(0.431628 3.70004 0)
(0.379834 2.47068 0)
(0.0814976 1.71143 0)
(-0.0580132 1.50441 0)
(-0.347069 1.41415 0)
(-0.658674 1.18412 0)
(-0.272423 0.320477 0)
(-0.892302 0.403486 0)
(-0.760876 0.0533331 0)
(-0.339644 -0.292307 0)
(-0.14122 -0.343864 0)
(-0.200453 -0.504472 0)
(-0.184076 -0.542344 0)
(-0.186183 -0.630269 0)
(-0.0948681 -0.605762 0)
(0.0366423 -0.564886 0)
(-0.129072 -0.811959 0)
(0.021905 -0.55566 0)
(0.0456894 -0.608863 0)
(-0.0114346 -0.545637 0)
(-0.0958983 -0.802257 0)
(0.0398305 -0.548506 0)
(0.0591796 4.11662 0)
(0.364689 3.67302 0)
(0.344566 2.51916 0)
(0.0804272 1.93045 0)
(-0.0190496 1.66903 0)
(-0.24071 1.53391 0)
(-0.661035 1.33311 0)
(-0.545333 0.396969 0)
(-0.813685 0.450342 0)
(-0.591137 -0.105975 0)
(-0.291768 -0.235979 0)
(-0.324716 -0.625024 0)
(-0.197524 -0.863697 0)
(0.000473072 -0.630761 0)
(-0.0942962 -0.566384 0)
(-0.0916694 -0.503193 0)
(-0.0986035 -0.591397 0)
(-0.00616083 -0.53507 0)
(0.0937511 -0.48159 0)
(0.00936175 -0.53396 0)
(-0.0508985 -0.474335 0)
(-0.0265854 -0.478151 0)
(0.0658267 -0.389856 0)
(0.0292925 3.61618 0)
(0.317336 3.39597 0)
(0.264645 2.53013 0)
(0.0798596 2.07447 0)
(0.0292008 1.81287 0)
(-0.160235 1.62036 0)
(-0.594387 1.50423 0)
(-0.56259 0.571263 0)
(-0.713857 0.309556 0)
(-0.269514 -0.13791 0)
(-0.393187 -0.603071 0)
(-0.378726 -0.650472 0)
(-0.0898339 -0.700245 0)
(0.0973437 -0.664837 0)
(-0.0426149 -0.776489 0)
(-0.102547 -0.529296 0)
(-0.0281845 -0.595956 0)
(-0.0111581 -0.446004 0)
(0.0137911 -0.522368 0)
(0.0266219 -0.511465 0)
(0.0879645 -0.484779 0)
(0.00384616 -0.462865 0)
(-0.0978421 -0.404752 0)
(0.0328202 3.39741 0)
(0.300736 3.07251 0)
(0.258021 2.55634 0)
(0.170806 2.18319 0)
(0.0754368 1.91619 0)
(-0.0814813 1.76261 0)
(-0.453157 1.55516 0)
(-0.438886 0.96168 0)
(-0.610017 0.485181 0)
(-0.400957 -0.428841 0)
(-0.431257 -0.898196 0)
(-0.0759844 -0.85873 0)
(-0.0096885 -0.650614 0)
(-0.0794745 -0.619546 0)
(0.0617996 -0.758205 0)
(0.120551 -0.749799 0)
(-0.0640155 -0.610281 0)
(0.0367838 -0.477308 0)
(0.0144719 -0.520543 0)
(0.0380312 -0.518508 0)
(-0.0285442 -0.510543 0)
(0.032102 -0.757413 0)
(0.0012261 -0.476357 0)
(-0.0274584 3.48052 0)
(0.179373 3.01522 0)
(0.267929 2.55941 0)
(0.205053 2.26533 0)
(0.169257 2.0446 0)
(0.14984 1.89103 0)
(-0.152104 1.71932 0)
(-0.0906995 1.0631 0)
(-0.312385 0.163513 0)
(-0.179716 -0.635873 0)
(-0.078998 -0.683227 0)
(0.0761678 -0.897924 0)
(0.156217 -0.778685 0)
(0.0851075 -0.807692 0)
(-0.138141 -0.585216 0)
(0.0695278 -0.750294 0)
(0.202294 -0.620603 0)
(0.0857118 -0.646085 0)
(-0.015789 -0.498208 0)
(0.0491211 -0.468243 0)
(-0.0757349 -0.496427 0)
(0.0165241 -0.458967 0)
(0.0440047 -0.424935 0)
(-0.0941752 3.45264 0)
(0.0677933 2.88262 0)
(0.249585 2.53246 0)
(0.177021 2.30191 0)
(0.159121 2.10611 0)
(0.370934 1.90469 0)
(0.261933 1.77167 0)
(0.232256 1.31403 0)
(0.32959 0.584336 0)
(0.327348 -0.46876 0)
(0.24247 -0.724604 0)
(0.0862234 -0.916919 0)
(0.157612 -0.825135 0)
(0.103838 -0.935784 0)
(0.128552 -0.702363 0)
(0.100863 -0.575689 0)
(0.0683966 -0.62359 0)
(0.169097 -0.634362 0)
(0.18534 -0.66979 0)
(0.0464107 -0.44612 0)
(0.0122533 -0.421274 0)
(0.0703935 -0.391666 0)
(0.0882828 -0.369818 0)
(-0.0843817 3.3382 0)
(0.056538 2.82165 0)
(0.130517 2.4919 0)
(0.116676 2.32521 0)
(0.140459 2.14107 0)
(0.45379 1.99724 0)
(0.557982 1.73322 0)
(0.586008 1.11378 0)
(0.677818 -0.13112 0)
(0.3376 -0.694393 0)
(0.343596 -0.894839 0)
(0.426103 -0.869895 0)
(0.264895 -0.772878 0)
(0.246976 -0.818025 0)
(0.218614 -0.620578 0)
(0.085368 -0.596269 0)
(0.15442 -0.559141 0)
(0.0651408 -0.495493 0)
(0.15523 -0.563384 0)
(0.279591 -0.488757 0)
(0.0341316 -0.545987 0)
(0.0890729 -0.459136 0)
(-0.0400638 -0.506442 0)
(-0.0503521 3.3542 0)
(0.0310285 2.7674 0)
(0.068066 2.49435 0)
(0.125668 2.38422 0)
(0.148597 2.10542 0)
(0.368452 2.11305 0)
(0.577004 1.88777 0)
(0.859459 1.32866 0)
(0.90981 0.566267 0)
(0.773043 -0.1499 0)
(0.613804 -0.627554 0)
(0.539275 -0.724757 0)
(0.264648 -0.759425 0)
(0.2182 -0.66468 0)
(0.288288 -0.514198 0)
(0.126011 -0.52491 0)
(0.130811 -0.511638 0)
(0.134754 -0.524296 0)
(0.17718 -0.398038 0)
(0.0702315 -0.456071 0)
(0.0595917 -0.722663 0)
(0.101623 -0.478567 0)
(0.085786 -0.694717 0)
(-0.0439239 3.409 0)
(-0.010178 2.7786 0)
(0.0748538 2.51392 0)
(0.0365872 2.45101 0)
(0.159966 2.15503 0)
(0.501054 2.22354 0)
(0.433556 2.08626 0)
(0.559288 1.31704 0)
(0.261879 0.161646 0)
(0.54444 -0.490522 0)
(0.592879 -0.658812 0)
(0.452226 -0.642887 0)
(0.340159 -0.682284 0)
(0.428774 -0.637992 0)
(0.286689 -0.597901 0)
(0.0224878 -0.47677 0)
(0.113674 -0.524859 0)
(0.155649 -0.437107 0)
(0.220898 -0.466161 0)
(-0.0171626 -0.580801 0)
(-0.0170922 -0.471615 0)
(0.0974194 -0.498299 0)
(0.0207507 -0.459582 0)
(-0.0380594 3.42264 0)
(-0.0271328 2.8171 0)
(0.119564 2.55406 0)
(0.0701115 2.48115 0)
(0.0833445 2.60846 0)
(0.395726 2.28769 0)
(0.11412 1.95468 0)
(0.44715 1.08307 0)
(0.607729 0.175917 0)
(0.745427 -0.219171 0)
(0.639767 -0.520815 0)
(0.415693 -0.517532 0)
(0.26116 -0.605985 0)
(0.288194 -0.560943 0)
(0.464668 -0.612791 0)
(0.266463 -0.579129 0)
(0.175983 -0.538371 0)
(0.177493 -0.575834 0)
(0.0627942 -0.46463 0)
(0.0485826 -0.740896 0)
(0.0832458 -0.403928 0)
(0.040161 -0.424719 0)
(-0.0259458 -0.326932 0)
(0.0174322 3.43923 0)
(0.0086753 2.79744 0)
(0.103369 2.5397 0)
(0.0476699 2.51918 0)
(-0.137818 2.60467 0)
(0.222848 2.21953 0)
(-0.225153 1.48648 0)
(-0.0483412 0.549005 0)
(0.57761 0.0112134 0)
(0.642487 -0.242361 0)
(0.577213 -0.583399 0)
(0.365788 -0.539907 0)
(0.279896 -0.544276 0)
(0.418586 -0.459788 0)
(0.289183 -0.527752 0)
(0.112124 -0.618117 0)
(0.119819 -0.503039 0)
(0.22804 -0.575326 0)
(0.126663 -0.551232 0)