/*--------------------------------*- C++ -*----------------------------------*\
| =========                 |                                                 |
| \\      /  F ield         | foam-extend: Open Source CFD                    |
|  \\    /   O peration     | Version:     4.1                                |
|   \\  /    A nd           | Web:         http://www.foam-extend.org         |
|    \\/     M anipulation  |                                                 |
\*---------------------------------------------------------------------------*/
FoamFile
{
    version     2.0;
    format      ascii;
    class       volVectorField;
    location    "0.95";
    object      U_0;
}
// * * * * * * * * * * * * * * * * * * * * * * * * * * * * * * * * * * * * * //

dimensions      [0 1 -1 0 0 0 0];

internalField   nonuniform List<vector> 
2268
(
(-0.0226384 -0.000483869 0)
(-0.205537 0.0337652 0)
(-0.384171 -0.0316451 0)
(-0.356893 -0.0672677 0)
(-0.405267 -0.0916887 0)
(-0.193267 -0.0779004 0)
(-0.020949 0.0778939 0)
(-0.261964 -0.0329452 0)
(-0.0159678 -0.082666 0)
(-0.130689 0.0847215 0)
(-0.188882 -0.00227294 0)
(-0.153403 0.0201624 0)
(-0.17957 -0.0218771 0)
(-0.0691591 -0.0369591 0)
(-0.0466992 0.00512818 0)
(-0.0245361 -0.002886 0)
(0.0255687 0.00132371 0)
(0.0214315 0.00917933 0)
(-0.0114673 0.00438207 0)
(-0.0262877 -0.0126336 0)
(-0.00469104 -0.0114659 0)
(0.00816721 0.00290389 0)
(-0.0315394 -0.0107079 0)
(-0.0416587 0.110804 0)
(-0.307145 0.176403 0)
(-0.468249 0.10966 0)
(-0.444282 0.0604794 0)
(-0.533424 -0.0987606 0)
(-0.532131 -0.0349347 0)
(-0.555279 0.0151996 0)
(-0.617947 -0.00289708 0)
(-0.346571 -0.00437797 0)
(-0.306854 0.0291005 0)
(-0.216848 0.00676627 0)
(-0.203318 -0.0185044 0)
(-0.193703 -0.0200772 0)
(-0.107743 -0.143227 0)
(-0.0447454 -0.0266731 0)
(-0.0262271 -0.0144275 0)
(0.0160479 -0.0227698 0)
(0.0177551 0.00792952 0)
(0.0290332 0.00931311 0)
(0.03112 0.019636 0)
(0.0119058 -0.00467441 0)
(0.0118949 0.00966296 0)
(0.0203779 -0.00174023 0)
(-0.105287 0.161006 0)
(-0.301441 0.14618 0)
(-0.406745 0.133427 0)
(-0.451951 0.118357 0)
(-0.501657 -0.106828 0)
(-0.443754 -0.089273 0)
(-0.506906 -0.11141 0)
(-0.510855 -0.0794532 0)
(-0.146112 -0.0162826 0)
(-0.134051 -0.0865971 0)
(-0.164219 0.0557773 0)
(-0.27891 -0.0677953 0)
(-0.302446 0.0207646 0)
(-0.155589 -0.16641 0)
(-0.0284162 -0.016436 0)
(-0.0523234 -0.0352847 0)
(0.0103656 -0.00798317 0)
(0.0186628 -0.000581825 0)
(0.0308974 0.0107205 0)
(0.0358057 -0.000716311 0)
(0.0157252 -0.0106228 0)
(0.00353891 0.00407541 0)
(0.00795049 0.0114054 0)
(-0.123086 0.173614 0)
(-0.252426 0.183762 0)
(-0.269642 0.210968 0)
(-0.337076 0.153275 0)
(-0.472919 0.00437194 0)
(-0.458255 -0.0899705 0)
(-0.582663 -0.159948 0)
(-0.622483 -0.0943547 0)
(-0.436572 -0.0125031 0)
(-0.31851 0.025351 0)
(-0.207931 0.0783576 0)
(-0.301539 -0.0908036 0)
(-0.256359 -0.084356 0)
(-0.114679 -0.182524 0)
(-0.020307 -0.112619 0)
(-0.0849285 -0.0240149 0)
(-0.00639694 -0.0506735 0)
(-0.00349146 0.00685718 0)
(0.030795 0.00762005 0)
(0.0311202 0.00427464 0)
(0.0169055 0.00860015 0)
(0.00625097 0.00912866 0)
(0.00756699 -0.00540025 0)
(-0.138855 0.246794 0)
(-0.218522 0.463413 0)
(-0.256273 0.274545 0)
(-0.456095 0.152459 0)
(-0.551389 0.129768 0)
(-0.473963 -0.168499 0)
(-0.538497 -0.294814 0)
(-0.587146 -0.146196 0)
(-0.462645 -0.183541 0)
(-0.329998 -0.0311985 0)
(-0.287307 0.0470339 0)
(-0.326886 -0.159942 0)
(-0.204062 -0.0984524 0)
(-0.076387 -0.163187 0)
(0.0253851 -0.102587 0)
(-0.0415128 -0.0175692 0)
(-0.0256112 -0.0377928 0)
(0.00618221 -0.0187881 0)
(0.0201882 0.00696418 0)
(0.0184993 -0.0102445 0)
(-0.0022468 0.0137881 0)
(-0.0111913 0.0229552 0)
(-0.0153017 0.0366481 0)
(-0.0749113 0.274593 0)
(-0.180861 0.433469 0)
(-0.293726 0.320348 0)
(-0.342604 0.16801 0)
(-0.470849 0.156484 0)
(-0.425736 -0.184455 0)
(-0.402359 -0.313947 0)
(-0.536145 -0.122873 0)
(-0.542852 -0.192148 0)
(-0.302927 -0.0617236 0)
(-0.313548 0.0853136 0)
(-0.391452 -0.142583 0)
(-0.18342 -0.223513 0)
(-0.139214 -0.22046 0)
(-0.0371847 -0.0246498 0)
(-0.0467994 -0.00217413 0)
(-0.0385225 -0.0890382 0)
(-0.00761594 -0.00116412 0)
(0.0133719 0.0149373 0)
(0.0170491 0.0127052 0)
(0.0120918 0.0217904 0)
(0.00739527 0.00314583 0)
(-0.0138987 -0.0355451 0)
(-0.0966893 0.306141 0)
(-0.0982755 0.323578 0)
(-0.253602 0.346935 0)
(-0.297502 0.215002 0)
(-0.424792 0.0919555 0)
(-0.350227 -0.220344 0)
(-0.363982 -0.223106 0)
(-0.449519 -0.130783 0)
(-0.416111 -0.059687 0)
(-0.290242 -0.0278752 0)
(-0.401392 -0.0483506 0)
(-0.427857 -0.0796132 0)
(-0.217174 -0.284401 0)
(-0.209363 -0.288865 0)
(-0.119136 -0.111882 0)
(-0.0768441 0.00146072 0)
(-0.0169611 -0.217433 0)
(0.0238603 -0.0392101 0)
(-0.0230051 -0.0178034 0)
(-0.00708276 -0.0197627 0)
(-0.00712843 0.022642 0)
(-0.024756 0.0633859 0)
(-0.0524342 0.0383751 0)
(-0.0773804 0.350266 0)
(-0.00358455 0.39869 0)
(-0.164675 0.42068 0)
(-0.264488 0.249648 0)
(-0.42802 0.112077 0)
(-0.327711 -0.241754 0)
(-0.378841 -0.266185 0)
(-0.45086 -0.285032 0)
(-0.345229 -0.0521835 0)
(-0.237466 -0.0729908 0)
(-0.381995 0.00574206 0)
(-0.347144 -0.198648 0)
(-0.191892 -0.13752 0)
(-0.238871 -0.365839 0)
(-0.150741 -0.104488 0)
(-0.00968617 -0.0570303 0)
(-0.00716415 -0.148767 0)
(0.0873044 0.0146451 0)
(-0.0354267 0.049275 0)
(-0.0511188 0.0208246 0)
(0.00397404 0.0400441 0)
(0.0496585 0.000765463 0)
(-0.00640325 -0.112505 0)
(-0.400988 0.112448 0)
(-0.494746 0.0427997 0)
(-0.734731 0.0738317 0)
(-1.01682 0.0530275 0)
(-1.07482 -0.0533764 0)
(-1.01262 -0.0259513 0)
(-1.02419 0.0175468 0)
(-1.14765 -0.161308 0)
(-1.26628 -0.0695279 0)
(-1.08738 -0.134171 0)
(-1.0754 -0.0310926 0)
(-1.01539 0.12299 0)
(-0.877596 -0.0664024 0)
(-0.803578 -0.0161607 0)
(-0.693375 -0.117679 0)
(-0.54216 -0.0769775 0)
(-0.474647 -0.109365 0)
(-0.369688 0.0429593 0)
(-0.0524093 -0.0556731 0)
(-0.33576 0.304081 0)
(-0.382694 0.106998 0)
(-0.603874 0.101783 0)
(-0.91622 0.0796223 0)
(-0.978362 0.0320819 0)
(-0.788634 0.0286753 0)
(-0.991438 -0.0231413 0)
(-1.15075 -0.14612 0)
(-1.2577 0.0151712 0)
(-1.01636 0.0904442 0)
(-0.937412 0.0566258 0)
(-1.01072 0.143799 0)
(-0.784827 0.0145931 0)
(-0.618749 -0.0529426 0)
(-0.589924 -0.111477 0)
(-0.412921 -0.0182951 0)
(-0.255139 -0.148775 0)
(-0.291849 -0.0394595 0)
(0.00560849 -0.12917 0)
(-0.432184 0.686704 0)
(-0.365685 0.317896 0)
(-0.231497 0.252878 0)
(-0.725472 -0.0367494 0)
(-0.897541 0.246509 0)
(-0.71476 -0.0512894 0)
(-0.782438 -0.178609 0)
(-0.928694 -0.103419 0)
(-0.950566 -0.052464 0)
(-0.854177 0.123918 0)
(-0.67509 -0.0903029 0)
(-0.677984 -0.177042 0)
(-0.5508 0.0626082 0)
(-0.184542 -0.182824 0)
(-0.157626 -0.308912 0)
(-0.338088 -0.0368091 0)
(-0.0387521 -0.138445 0)
(-0.167086 -0.0796357 0)
(0.0509829 -0.172908 0)
(-0.434624 0.755678 0)
(-0.265436 0.60933 0)
(-0.463445 0.276307 0)
(-0.864647 0.216418 0)
(-0.971265 0.278757 0)
(-0.758237 0.0109497 0)
(-0.695 -0.137083 0)
(-0.821367 -0.226829 0)
(-0.759232 -0.0159888 0)
(-0.554208 -0.0148923 0)
(-0.550954 0.0287538 0)
(-0.32612 -0.0720367 0)
(-0.246632 -0.142553 0)
(0.0799057 -0.0996789 0)
(0.114244 -0.396807 0)
(0.0789815 -0.0299093 0)
(0.0971846 -0.27415 0)
(-0.0620462 -0.0514251 0)
(0.0714471 -0.192317 0)
(-0.411719 0.955651 0)
(-0.4106 0.710713 0)
(-0.509045 0.275582 0)
(-0.810102 0.174444 0)
(-0.840068 0.139053 0)
(-0.548529 0.130553 0)
(-0.476643 -0.114824 0)
(-0.535286 -0.183379 0)
(-0.531634 0.0809565 0)
(-0.259633 -0.18463 0)
(-0.2767 0.0414323 0)
(-0.00363038 -0.168873 0)
(0.0651844 -0.195363 0)
(0.228657 -0.244967 0)
(0.246289 -0.329839 0)
(0.218108 -0.172275 0)
(0.154122 -0.336148 0)
(0.154977 -0.096013 0)
(0.0909278 -0.151091 0)
(-0.481115 1.08211 0)
(-0.402359 0.946377 0)
(-0.554873 0.355509 0)
(-0.639481 0.166899 0)
(-0.662304 0.228007 0)
(-0.254782 -0.0710498 0)
(-0.265051 -0.255643 0)
(-0.310517 -0.176394 0)
(-0.184627 -0.249327 0)
(-0.0594214 -0.117947 0)
(-0.127995 -0.0664997 0)
(0.107189 -0.213206 0)
(0.208882 -0.186966 0)
(0.320584 -0.233101 0)
(0.303469 -0.186604 0)
(0.329473 -0.128165 0)
(0.29161 -0.11198 0)
(0.225181 -0.0703943 0)
(0.0913679 -0.098544 0)
(-0.378429 1.40134 0)
(-0.527935 1.15325 0)
(-0.576067 0.366429 0)
(-0.485102 0.142737 0)
(-0.597408 0.242948 0)
(-0.203828 -0.141847 0)
(-0.209786 -0.363673 0)
(-0.133874 -0.0730482 0)
(-0.0678103 -0.2825 0)
(0.0727233 -0.120599 0)
(0.03428 0.0172349 0)
(0.197639 -0.33229 0)
(0.273153 -0.297718 0)
(0.366401 -0.270927 0)
(0.357956 -0.163856 0)
(0.347367 -0.12264 0)
(0.261197 0.0182392 0)
(0.218614 -0.0602959 0)
(0.0978865 -0.0816048 0)
(-0.469443 1.4498 0)
(-0.710791 0.991111 0)
(-0.688225 0.298586 0)
(-0.355344 0.120359 0)
(-0.379449 0.120244 0)
(-0.163718 -0.126835 0)
(-0.218956 -0.257489 0)
(-0.108384 -0.260455 0)
(-0.053849 -0.405794 0)
(0.0741372 -0.176925 0)
(0.236589 -0.0546576 0)
(0.249663 -0.36118 0)
(0.337708 -0.260645 0)
(0.369935 -0.259169 0)
(0.354999 -0.184239 0)
(0.340816 -0.0868833 0)
(0.214724 0.0382999 0)
(0.20699 -0.0185026 0)
(0.11613 -0.0328581 0)
(-0.165987 0.369139 0)
(0.00314998 0.400641 0)
(-0.121075 0.492459 0)
(-0.136642 0.374574 0)
(-0.163341 0.222206 0)
(-0.105707 -0.191341 0)
(-0.475187 -0.241419 0)
(-0.519352 -0.249421 0)
(-0.45568 -0.0651655 0)
(-0.383723 -0.145583 0)
(-0.357322 -0.0816062 0)
(-0.283398 -0.248018 0)
(-0.0391115 0.064259 0)
(-0.245157 -0.427786 0)
(-0.228038 -0.228196 0)
(-0.120226 -0.264324 0)
(-0.0712713 -0.0961431 0)
(-0.00916421 -0.0848848 0)
(0.0651895 -0.0357758 0)
(0.0629862 -0.085478 0)
(0.163755 -0.11689 0)
(-0.0250763 0.19464 0)
(-0.203958 0.198298 0)
(-0.160712 0.407845 0)
(0.11832 0.400751 0)
(-0.140357 0.442737 0)
(-0.00708713 0.356425 0)
(-0.0602504 0.286299 0)
(0.057329 -0.0393029 0)
(-0.171416 -0.0757352 0)
(-0.45057 -0.00910367 0)
(-0.524331 -0.107348 0)
(-0.415888 -0.184386 0)
(-0.324532 -0.304467 0)
(-0.369033 -0.241685 0)
(-0.52448 -0.253663 0)
(-0.517748 -0.32708 0)
(-0.338544 -0.254684 0)
(-0.400129 -0.290968 0)
(-0.434573 -0.244095 0)
(-0.428617 -0.140629 0)
(-0.430445 -0.010642 0)
(-0.4943 0.0287183 0)
(-0.461427 0.148411 0)
(-0.747904 0.238806 0)
(-0.812945 0.35752 0)
(-0.0777364 0.396341 0)
(0.101847 0.435737 0)
(-0.114154 0.590273 0)
(0.239846 0.3727 0)
(0.0471402 0.144437 0)
(-0.0259573 -0.0699974 0)
(-0.0400815 -0.00987152 0)
(-0.254735 0.0729994 0)
(-0.339954 -0.0589701 0)
(-0.486918 -0.00619708 0)
(-0.407725 -0.0999319 0)
(-0.421667 -0.12745 0)
(-0.532594 -0.148054 0)
(-0.532168 -0.0673632 0)
(-0.607128 -0.1008 0)
(-0.643583 -0.0925469 0)
(-0.634598 -0.0977831 0)
(-0.680705 0.0421863 0)
(-0.81038 -0.0189518 0)
(-0.83412 -0.0998202 0)
(-0.761783 0.0731138 0)
(-0.814225 0.171736 0)
(-0.84316 0.37871 0)
(-0.0484798 0.353326 0)
(0.0412511 0.428108 0)
(-0.0771086 0.82371 0)
(0.0519354 0.35579 0)
(-0.047607 0.200429 0)
(-0.149175 0.0594557 0)
(-0.21577 0.0749443 0)
(-0.292716 0.131316 0)
(-0.342939 -0.0576145 0)
(-0.390873 -0.0273275 0)
(-0.491135 -0.0259526 0)
(-0.542793 -0.155115 0)
(-0.612918 -0.157164 0)
(-0.600885 -0.112519 0)
(-0.607479 -0.0670126 0)
(-0.665748 -0.120024 0)
(-0.553167 -0.162894 0)
(-0.739765 -0.00744544 0)
(-1.05142 0.151744 0)
(-0.789718 0.076855 0)
(-0.681047 0.100077 0)
(-0.728231 0.272873 0)
(-1.01047 0.337285 0)
(-0.149057 0.424212 0)
(-0.0836044 0.509597 0)
(0.0519115 0.677437 0)
(0.0237362 0.35808 0)
(-0.0572591 0.304897 0)
(-0.28569 0.106611 0)
(-0.340227 0.10075 0)
(-0.540621 0.169872 0)
(-0.509726 0.14322 0)
(-0.378908 0.141222 0)
(-0.570316 0.0954854 0)
(-0.562431 -0.136889 0)
(-0.546317 -0.13591 0)
(-0.490885 -0.104146 0)
(-0.777406 -0.197704 0)
(-0.912943 -0.246716 0)
(-0.580311 -0.11367 0)
(-0.430881 -0.207999 0)
(-0.919737 0.0866293 0)
(-1.05383 0.282271 0)
(-0.827667 0.241515 0)
(-0.787902 0.19224 0)
(-0.917723 0.130475 0)
(-0.130381 0.576424 0)
(-0.0710365 0.732435 0)
(-0.0339689 0.673454 0)
(-0.105014 0.432196 0)
(-0.161844 0.546642 0)
(-0.179626 0.390733 0)
(-0.136042 0.244521 0)
(-0.429661 0.127138 0)
(-0.434063 0.340518 0)
(-0.350859 0.266661 0)
(-0.603607 0.137657 0)
(-0.526577 -0.0819007 0)
(-0.325606 -0.066538 0)
(-0.498614 -0.166757 0)
(-0.714486 -0.231266 0)
(-0.682716 -0.00416942 0)
(-0.57587 0.070948 0)
(-0.715937 0.0493727 0)
(-0.779236 0.015433 0)
(-1.02769 0.369063 0)
(-1.09172 0.431134 0)
(-1.04002 0.331667 0)
(-1.01274 0.316096 0)
(-0.00820622 0.574279 0)
(0.0383353 0.567143 0)
(-0.129359 0.729601 0)
(-0.0424838 0.506014 0)
(0.0858659 0.863798 0)
(-0.294407 0.674167 0)
(-0.350511 0.300581 0)
(-0.408807 0.185621 0)
(-0.398042 0.2753 0)
(-0.435089 0.00618914 0)
(-0.711626 -0.0720318 0)
(-0.5181 0.068433 0)
(-0.366459 -0.111548 0)
(-0.52352 -0.165685 0)
(-0.703587 -0.0128705 0)
(-0.715334 0.138397 0)
(-0.703457 0.0871808 0)
(-0.878793 0.180659 0)
(-1.06857 0.257492 0)
(-1.21346 0.331241 0)
(-1.21035 0.398781 0)
(-1.17324 0.418243 0)
(-1.09073 0.259387 0)
(-0.000397402 0.504318 0)
(0.111828 0.296406 0)
(0.0581337 0.856195 0)
(0.0359423 0.769345 0)
(-0.0842821 0.957592 0)
(-0.298465 0.622551 0)
(-0.420814 0.376021 0)
(-0.396944 0.282505 0)
(-0.466922 0.294672 0)
(-0.512296 0.184804 0)
(-0.549628 0.257082 0)
(-0.634484 0.236163 0)
(-0.620489 0.0340229 0)
(-0.704962 -0.016741 0)
(-0.706802 -0.0858315 0)
(-0.77272 0.141444 0)
(-0.835701 0.185947 0)
(-1.01764 0.312067 0)
(-1.17362 0.345539 0)
(-1.22387 0.386204 0)
(-1.13751 0.365592 0)
(-1.00178 0.205548 0)
(-0.985845 0.0687712 0)
(0.0991854 0.522993 0)
(0.274005 0.43863 0)
(0.275939 0.750935 0)
(0.133903 0.873069 0)
(-0.0579259 0.991986 0)
(-0.358588 0.689037 0)
(-0.355624 0.456573 0)
(-0.362495 0.4376 0)
(-0.404417 0.310027 0)
(-0.379681 0.352167 0)
(-0.441388 0.285576 0)
(-0.506346 0.217564 0)
(-0.730917 -0.084102 0)
(-1.12879 -0.0613154 0)
(-0.878346 0.144042 0)
(-0.842445 0.205242 0)
(-1.07202 0.335828 0)
(-1.09626 0.430069 0)
(-1.16282 0.409361 0)
(-1.15191 0.368342 0)
(-1.01855 0.149714 0)
(-0.886482 -0.0665787 0)
(-0.861729 -0.112349 0)
(0.0612468 0.593977 0)
(0.0924026 0.577863 0)
(0.181444 0.602834 0)
(0.0156305 0.926553 0)
(-0.0563869 0.853825 0)
(-0.293641 0.724817 0)
(-0.280044 0.685959 0)
(-0.318131 0.533446 0)
(-0.37011 0.28648 0)
(-0.372875 0.272451 0)
(-0.295208 0.214041 0)
(-0.386162 0.0999204 0)
(-0.734996 -0.108563 0)
(-0.914629 0.287173 0)
(-0.878277 0.399306 0)
(-1.03717 0.378913 0)
(-1.00808 0.408742 0)
(-0.98385 0.469969 0)
(-1.01243 0.490417 0)
(-0.985999 0.239863 0)
(-0.841127 0.052041 0)
(-0.75366 -0.00601301 0)
(-0.760492 -0.0716023 0)
(0.170297 0.342209 0)
(-0.109379 0.431867 0)
(0.0248455 0.687357 0)
(0.104744 1.23678 0)
(0.0461548 0.952778 0)
(-0.0123046 0.916604 0)
(0.182311 0.945621 0)
(-0.115767 0.846789 0)
(-0.203796 0.452557 0)
(-0.256279 0.216026 0)
(-0.437673 0.27758 0)
(-0.42309 0.215371 0)
(-0.558716 0.282481 0)
(-0.941207 0.441265 0)
(-1.01796 0.382621 0)
(-1.09276 0.42497 0)
(-0.988885 0.578818 0)
(-0.8288 0.46255 0)
(-1.05537 0.402769 0)
(-1.13224 0.282351 0)
(-0.643418 -0.00372049 0)
(-0.576715 -0.184475 0)
(-0.641983 -0.225655 0)
(0.122578 0.402449 0)
(-0.0230322 0.365918 0)
(0.178239 1.01574 0)
(0.0372753 1.08319 0)
(0.0139256 0.941458 0)
(0.141889 0.779971 0)
(0.196675 0.921558 0)
(0.131328 0.649667 0)
(-0.122397 0.450085 0)
(-0.155638 0.292679 0)
(-0.37235 0.363759 0)
(-0.537691 0.463248 0)
(-0.835483 0.360194 0)
(-0.929372 0.475772 0)
(-0.962135 0.423379 0)
(-0.983616 0.540849 0)
(-0.930751 0.619663 0)
(-0.904793 0.389409 0)
(-0.893519 0.311691 0)
(-0.868076 0.336421 0)
(-0.672605 0.173898 0)
(-0.650941 -0.134571 0)
(-0.572546 -0.259935 0)
(0.116904 0.191805 0)
(0.115516 0.205682 0)
(-0.011167 0.559934 0)
(-0.0994885 0.633724 0)
(0.0285742 0.671324 0)
(0.241732 0.734614 0)
(0.04025 0.904914 0)
(-0.0382634 0.760471 0)
(-0.174892 0.379397 0)
(-0.334738 0.474406 0)
(-0.524886 0.461316 0)
(-0.605746 0.544205 0)
(-0.801355 0.565645 0)
(-1.02024 0.653248 0)
(-1.03782 0.592365 0)
(-0.884649 0.770839 0)
(-0.982932 0.571524 0)
(-0.843329 0.38729 0)
(-0.691454 0.332395 0)
(-0.67768 0.0386708 0)
(-0.476593 -0.164408 0)
(-0.149909 -0.430811 0)
(-0.0917746 -0.588019 0)
(0.00520573 0.273036 0)
(-0.247213 0.441984 0)
(-0.370993 0.701817 0)
(-0.484357 0.720526 0)
(-0.297168 0.709455 0)
(-0.170082 0.719764 0)
(-0.383575 0.663136 0)
(-0.405817 0.713051 0)
(-0.335302 0.617184 0)
(-0.383248 0.597125 0)
(-0.709709 0.640597 0)
(-0.81712 0.677264 0)
(-0.861349 0.577644 0)
(-0.923876 0.826086 0)
(-0.936171 0.892268 0)
(-0.984078 0.809298 0)
(-1.10277 0.658588 0)
(-0.816572 0.473872 0)
(-0.522534 0.114304 0)
(-0.516996 -0.165258 0)
(-0.123691 -0.356902 0)
(-0.195704 -0.38346 0)
(-0.164698 -0.684194 0)
(-0.0789722 0.617931 0)
(-0.160896 0.510301 0)
(-0.40476 0.649057 0)
(-0.581236 0.692922 0)
(-0.625587 0.867482 0)
(-0.642924 0.881725 0)
(-0.689742 0.893005 0)
(-0.623307 0.791326 0)
(-0.642595 0.987071 0)
(-0.590588 0.786233 0)
(-0.866094 0.900746 0)
(-1.01819 0.797459 0)
(-0.941673 0.70483 0)
(-0.900446 0.7556 0)
(-1.0934 0.711008 0)
(-1.12229 0.572535 0)
(-1.08478 0.5006 0)
(-0.626403 0.2909 0)
(-0.422486 -0.27039 0)
(-0.0855686 -0.345779 0)
(-0.1219 -0.453455 0)
(-0.0811661 -0.420942 0)
(-0.0494433 -0.250254 0)
(-0.183293 0.97244 0)
(-0.433655 0.692788 0)
(-0.811693 0.847862 0)
(-1.00873 0.817936 0)
(-1.06488 0.794742 0)
(-1.08981 0.771223 0)
(-1.14189 0.763028 0)
(-1.01564 0.711135 0)
(-1.00517 0.737367 0)
(-1.13394 0.85946 0)
(-1.30677 0.989044 0)
(-1.5161 0.862789 0)
(-1.16276 0.724174 0)
(-0.999802 0.52689 0)
(-0.998752 0.407479 0)
(-0.831077 0.275072 0)
(-0.717971 0.168526 0)
(-0.208517 -0.179737 0)
(-0.111375 -0.3437 0)
(-0.0149121 -0.435526 0)
(-0.0800988 -0.438792 0)
(-0.158467 -0.420941 0)
(-0.0791168 -0.473676 0)
(-0.227006 1.74042 0)
(-0.387415 1.03209 0)
(-1.02235 1.14816 0)
(-1.29051 0.926383 0)
(-1.26242 0.790619 0)
(-1.34115 0.835611 0)
(-1.56128 0.988153 0)
(-1.55364 1.0696 0)
(-1.35878 0.833416 0)
(-1.2544 0.897108 0)
(-1.41116 0.790493 0)
(-1.48486 0.819519 0)
(-1.00967 0.775617 0)
(-0.838355 0.550219 0)
(-0.795077 0.44807 0)
(-0.571179 0.172472 0)
(-0.326683 -0.15361 0)
(-0.0266344 -0.321084 0)
(-0.190218 -0.56727 0)
(-0.239903 -0.570051 0)
(-0.221489 -0.70306 0)
(-0.279066 -0.638197 0)
(-0.252213 -0.512686 0)
(-0.282471 2.37146 0)
(-0.310485 1.29822 0)
(-1.02716 1.06302 0)
(-1.34033 1.04233 0)
(-1.3381 1.05874 0)
(-1.35706 1.01243 0)
(-1.52441 1.03366 0)
(-1.52733 1.1133 0)
(-1.36123 1.01598 0)
(-1.13208 0.786664 0)
(-1.11165 0.587591 0)
(-1.01484 0.633457 0)
(-0.784359 0.647739 0)
(-0.78492 0.401588 0)
(-0.547723 0.264943 0)
(-0.318269 -0.11795 0)
(-0.0654456 -0.334178 0)
(-0.124445 -0.563024 0)
(-0.211212 -0.766383 0)
(-0.219206 -0.804772 0)
(-0.250533 -0.785071 0)
(-0.271226 -0.80397 0)
(-0.268872 -0.661109 0)
(-0.332877 3.11186 0)
(-0.534823 1.58176 0)
(-0.84977 1.16021 0)
(-0.952318 1.17849 0)
(-1.29794 1.34578 0)
(-1.56893 1.20231 0)
(-1.23227 0.968175 0)
(-1.05286 0.862354 0)
(-1.11814 0.947396 0)
(-0.806563 0.661212 0)
(-0.841391 0.545528 0)
(-0.80219 0.478721 0)
(-0.759925 0.439574 0)
(-0.889896 0.359176 0)
(-0.400085 -0.0553242 0)
(-0.461854 -0.386985 0)
(-0.388193 -0.47739 0)
(-0.319749 -0.533796 0)
(-0.184657 -0.371864 0)
(-0.261224 -0.444154 0)
(-0.126395 -0.524926 0)
(-0.216931 -0.622063 0)
(-0.168485 -0.416254 0)
(0.0713503 3.91181 0)
(-0.616816 1.75948 0)
(-0.838474 1.43675 0)
(-0.651061 1.262 0)
(-1.16777 1.03518 0)
(-1.40702 1.1612 0)
(-1.12458 1.20687 0)
(-0.977958 0.917493 0)
(-0.861492 0.827192 0)
(-0.654419 0.571513 0)
(-0.768747 0.614239 0)
(-0.709148 0.438458 0)
(-0.71706 0.237622 0)
(-0.766003 0.150417 0)
(-0.356614 -0.233025 0)
(-0.361068 -0.426487 0)
(-0.203531 -0.418434 0)
(-0.272208 -0.359054 0)
(-0.279787 -0.322205 0)
(-0.350069 -0.347727 0)
(-0.19386 -0.410656 0)
(-0.132722 -0.386174 0)
(-0.0803361 -0.303409 0)
(-0.292278 4.31129 0)
(-0.506351 2.19511 0)
(-0.469782 1.80936 0)
(-0.667073 1.30642 0)
(-0.923909 1.0309 0)
(-1.03227 1.06596 0)
(-0.976459 1.04909 0)
(-0.843997 0.733833 0)
(-0.71661 0.586528 0)
(-0.500661 0.605941 0)
(-0.538008 0.697866 0)
(-0.531472 0.452699 0)
(-0.616975 0.36729 0)
(-0.412442 -0.011268 0)
(-0.316751 -0.396085 0)
(-0.218709 -0.333423 0)
(-0.232885 -0.501855 0)
(-0.266977 -0.455862 0)
(-0.237438 -0.4734 0)
(-0.192867 -0.458502 0)
(-0.115567 -0.416394 0)
(-0.0796796 -0.355945 0)
(-0.0453094 -0.284852 0)
(-0.496446 5.31061 0)
(-0.495314 3.44649 0)
(-0.519883 2.10971 0)
(-0.688493 1.4559 0)
(-0.848422 1.33055 0)
(-0.916687 1.09042 0)
(-0.849707 0.817993 0)
(-0.661576 0.697581 0)
(-0.452545 0.589916 0)
(-0.421388 0.78738 0)
(-0.55865 0.742059 0)
(-0.437732 0.55151 0)
(-0.299869 0.236602 0)
(-0.0676682 -0.230579 0)
(-0.118657 -0.439531 0)
(-0.201094 -0.482184 0)
(-0.148723 -0.564946 0)
(-0.105262 -0.381612 0)
(-0.142779 -0.338171 0)
(-0.124911 -0.447876 0)
(-0.106307 -0.429251 0)
(5.86626e-05 -0.464197 0)
(0.0296986 -0.476308 0)
(-0.299548 5.80643 0)
(-0.511836 3.46447 0)
(-0.875707 2.15607 0)
(-0.661221 1.58301 0)
(-0.779473 1.3185 0)
(-0.949469 1.14812 0)
(-0.713681 1.01633 0)
(-0.631341 0.963373 0)
(-0.586445 1.00157 0)
(-0.380265 0.935827 0)
(-0.576605 0.788909 0)
(-0.47479 0.598081 0)
(-0.374629 0.0368476 0)
(-0.112008 -0.343631 0)
(-0.147713 -0.59321 0)
(-0.105128 -0.535797 0)
(-0.151095 -0.56325 0)
(-0.0140182 -0.439259 0)
(-0.0292254 -0.520263 0)
(-0.167399 -0.424685 0)
(-0.141116 -0.363245 0)
(-0.124039 -0.4535 0)
(-0.046306 -0.552081 0)
(0.0033188 6.04442 0)
(-0.546244 3.27068 0)
(-0.932396 2.04609 0)
(-0.562336 1.59579 0)
(-0.732391 1.25586 0)
(-0.74647 1.17968 0)
(-0.694542 1.20642 0)
(-0.894198 1.05759 0)
(-0.649146 0.941179 0)
(-0.745253 0.827515 0)
(-0.970314 0.823846 0)
(-0.508068 0.39625 0)
(-0.2664 -0.241384 0)
(-0.26782 -0.435182 0)
(-0.195043 -0.465876 0)
(-0.0602426 -0.544008 0)
(-0.0870096 -0.54304 0)
(-0.0853032 -0.527258 0)
(0.0509619 -0.705006 0)
(0.0193034 -0.570532 0)
(-0.20015 -0.578547 0)
(-0.163264 -0.495044 0)
(-0.172321 -0.469319 0)
(0.12392 6.13876 0)
(-0.558876 3.28361 0)
(-0.863215 2.05719 0)
(-0.483242 1.58794 0)
(-0.675059 1.43231 0)
(-0.667095 1.52836 0)
(-0.736653 1.11293 0)
(-0.869813 0.881519 0)
(-0.702526 0.63726 0)
(-0.85948 0.521438 0)
(-0.92272 0.641039 0)
(-0.480201 -0.0301173 0)
(-0.309389 -0.36282 0)
(-0.15727 -0.404036 0)
(-0.161987 -0.440767 0)
(-0.0779161 -0.559494 0)
(-0.0804045 -0.565641 0)
(-0.101005 -0.602124 0)
(-0.0801825 -0.784916 0)
(-0.0851119 -0.703821 0)
(-0.116528 -0.696407 0)
(-0.0659911 -0.574001 0)
(-0.0850194 -0.506073 0)
(0.159679 6.09431 0)
(-0.445721 3.40267 0)
(-0.668242 2.13701 0)
(-0.321297 1.4662 0)
(-0.506862 1.3699 0)
(-0.637297 1.46566 0)
(-0.988952 1.07444 0)
(-1.10995 0.951786 0)
(-0.774964 0.672326 0)
(-0.800457 0.501805 0)
(-0.862516 0.468026 0)
(-0.201074 -0.136266 0)
(-0.02552 -0.276447 0)
(-0.132473 -0.65915 0)
(-0.239718 -0.52743 0)
(-0.0849363 -0.597341 0)
(-0.0993953 -0.509924 0)
(-0.213903 -0.525334 0)
(-0.0815797 -0.53369 0)
(0.0523118 -0.730838 0)
(-0.0747599 -0.5505 0)
(-0.0174249 -0.527953 0)
(-0.0436558 -0.497201 0)
(-0.0170092 5.78525 0)
(-0.419879 3.48086 0)
(-0.48009 2.17498 0)
(-0.286008 1.42274 0)
(-0.363297 1.28424 0)
(-0.52788 1.28938 0)
(-0.928542 0.959744 0)
(-0.84648 0.774437 0)
(-0.553174 0.603578 0)
(-0.710967 0.367403 0)
(-0.758463 0.309767 0)
(0.0666276 -0.335062 0)
(-0.081857 -0.565734 0)
(-0.203201 -0.776351 0)
(-0.0198896 -0.634597 0)
(-0.01077 -0.499181 0)
(0.0418342 -0.634258 0)
(-0.272509 -0.545635 0)
(-0.281116 -0.439083 0)
(-0.133944 -0.584454 0)
(0.064475 -0.679048 0)
(0.00925749 -0.544657 0)
(-0.0708462 -0.467843 0)
(-0.20147 4.86594 0)
(-0.245231 3.53404 0)
(-0.23395 2.10807 0)
(-0.202204 1.47057 0)
(-0.334151 1.37361 0)
(-0.534926 1.34254 0)
(-0.827865 1.0013 0)
(-0.300513 0.526655 0)
(-0.375007 0.292466 0)
(-0.47875 0.136824 0)
(-0.147855 0.0668861 0)
(-0.0951839 -0.554568 0)
(-0.275581 -0.687416 0)
(-0.0674804 -0.603749 0)
(0.100954 -0.658954 0)
(-0.0720839 -0.84175 0)
(-0.17517 -0.928457 0)
(-0.00805334 -0.812492 0)
(-0.0925826 -0.753069 0)
(-0.237305 -0.532246 0)
(-0.0072392 -0.601228 0)
(0.156496 -0.451015 0)
(0.00115863 -0.520908 0)
(0.160586 4.05544 0)
(0.205862 3.59947 0)
(0.141635 2.27739 0)
(-0.0272128 1.57074 0)
(-0.183924 1.42156 0)
(-0.478798 1.38757 0)
(-0.74863 1.15709 0)
(-0.179447 0.45126 0)
(-0.538161 0.294191 0)
(-0.762518 0.125067 0)
(-0.493105 -0.337553 0)
(-0.273885 -0.470564 0)
(-0.0510655 -0.430088 0)
(-0.034013 -0.525367 0)
(-0.105792 -0.653985 0)
(-0.20285 -0.992257 0)
(-0.0238606 -0.647933 0)
(0.0515543 -0.794191 0)
(-0.0301858 -0.900124 0)
(-0.0225381 -0.64506 0)
(0.0694152 -0.522457 0)
(-0.0734936 -0.642438 0)
(-0.233651 -0.796804 0)
(0.134954 4.14948 0)
(0.42839 3.67666 0)
(0.378081 2.49927 0)
(0.0902234 1.75641 0)
(-0.0527172 1.53493 0)
(-0.334581 1.44028 0)
(-0.652327 1.20424 0)
(-0.280293 0.330184 0)
(-0.894335 0.410036 0)
(-0.759607 0.054686 0)
(-0.337672 -0.295566 0)
(-0.131374 -0.3518 0)
(-0.192007 -0.507497 0)
(-0.179922 -0.550017 0)
(-0.180907 -0.635363 0)
(-0.0911947 -0.613002 0)
(0.0429819 -0.567399 0)
(-0.12611 -0.815981 0)
(0.023326 -0.558852 0)
(0.0497649 -0.611584 0)
(-0.00831546 -0.549426 0)
(-0.0954619 -0.804193 0)
(0.0412495 -0.552382 0)
(0.0352948 4.02749 0)
(0.351214 3.62572 0)
(0.328233 2.54152 0)
(0.076084 1.96886 0)
(-0.0211724 1.69688 0)
(-0.23622 1.55955 0)
(-0.65388 1.36514 0)
(-0.549143 0.4105 0)
(-0.82073 0.454189 0)
(-0.590465 -0.103472 0)
(-0.285256 -0.241961 0)
(-0.315254 -0.628471 0)
(-0.189737 -0.872185 0)
(0.00417775 -0.63394 0)
(-0.0878357 -0.570883 0)
(-0.0849215 -0.50847 0)
(-0.0920272 -0.594271 0)
(-0.00351025 -0.539637 0)
(0.097469 -0.484194 0)
(0.0130584 -0.535508 0)
(-0.0485986 -0.478436 0)
(-0.0262785 -0.480759 0)
(0.0683094 -0.393298 0)
(0.0126249 3.55257 0)
(0.299284 3.32596 0)
(0.249023 2.54656 0)
(0.0777567 2.10092 0)
(0.0273386 1.84003 0)
(-0.159596 1.64357 0)
(-0.586137 1.52322 0)
(-0.558959 0.587538 0)
(-0.714935 0.297737 0)
(-0.264838 -0.145058 0)
(-0.380098 -0.611733 0)
(-0.37286 -0.653565 0)
(-0.0832133 -0.708052 0)
(0.105602 -0.669494 0)
(-0.035956 -0.77956 0)
(-0.096377 -0.534946 0)
(-0.0193893 -0.598728 0)
(-0.00709328 -0.449834 0)
(0.01772 -0.524646 0)
(0.0286115 -0.5131 0)
(0.0901581 -0.488118 0)
(0.00597082 -0.465399 0)
(-0.0946481 -0.407059 0)
(0.00759678 3.37709 0)
(0.268353 3.02288 0)
(0.250153 2.54774 0)
(0.171163 2.19842 0)
(0.074986 1.94291 0)
(-0.0750211 1.79206 0)
(-0.44427 1.57756 0)
(-0.420269 0.972531 0)
(-0.599544 0.475097 0)
(-0.389669 -0.427092 0)
(-0.40799 -0.907877 0)
(-0.0629715 -0.863332 0)
(0.000934957 -0.656951 0)
(-0.0678924 -0.625749 0)
(0.0665762 -0.763051 0)
(0.126684 -0.750218 0)
(-0.0544049 -0.614555 0)
(0.0384945 -0.480448 0)
(0.0184223 -0.521834 0)
(0.0404242 -0.520398 0)
(-0.0253589 -0.511554 0)
(0.0331906 -0.756917 0)
(0.00334229 -0.478154 0)
(-0.0596997 3.47933 0)
(0.14104 2.96666 0)
(0.270108 2.54254 0)
(0.203933 2.27736 0)
(0.169084 2.06263 0)
(0.16265 1.91013 0)
(-0.130697 1.73836 0)
(-0.0625972 1.07753 0)
(-0.28325 0.166513 0)
(-0.156166 -0.64064 0)
(-0.0549223 -0.690845 0)
(0.0909568 -0.901389 0)
(0.16876 -0.778684 0)
(0.0940251 -0.805187 0)
(-0.12715 -0.587785 0)
(0.076111 -0.748719 0)
(0.207339 -0.62317 0)
(0.0911614 -0.646371 0)
(-0.0109817 -0.500784 0)
(0.0510099 -0.468876 0)
(-0.0725368 -0.498271 0)
(0.0171947 -0.460014 0)
(0.0455046 -0.425851 0)
(-0.113779 3.44111 0)
(0.0493036 2.88066 0)
(0.239107 2.53747 0)
(0.164633 2.31877 0)
(0.152633 2.11753 0)
(0.380841 1.91646 0)
(0.278153 1.79198 0)
(0.247386 1.30643 0)
(0.360403 0.57691 0)
(0.35666 -0.470261 0)
(0.263552 -0.718021 0)
(0.102871 -0.911283 0)
(0.171117 -0.820765 0)
(0.113938 -0.929349 0)
(0.134174 -0.698872 0)
(0.109181 -0.574649 0)
(0.0769522 -0.624895 0)
(0.172492 -0.634086 0)
(0.189844 -0.669605 0)
(0.0510573 -0.44557 0)
(0.0132591 -0.423376 0)
(0.0716343 -0.391766 0)
(0.0899469 -0.371305 0)
(-0.0786292 3.322 0)
(0.0470283 2.83147 0)
(0.0995991 2.50215 0)
(0.104756 2.33642 0)
(0.130514 2.14834 0)
(0.450489 2.00512 0)
(0.551666 1.74173 0)
(0.599869 1.10637 0)
(0.704195 -0.139654 0)
(0.365536 -0.695036 0)
(0.361604 -0.881382 0)
(0.430088 -0.860393 0)
(0.275247 -0.76724 0)
(0.254482 -0.810894 0)
(0.2233 -0.617167 0)
(0.0907388 -0.591638 0)
(0.159944 -0.558717 0)
(0.0718691 -0.495032 0)
(0.160676 -0.561069 0)
(0.281217 -0.489881 0)
(0.0364566 -0.54501 0)
(0.0906806 -0.461777 0)
(-0.0380872 -0.506899 0)
(-0.024404 3.34234 0)
(0.0319296 2.75557 0)
(0.0511533 2.49016 0)
(0.111217 2.38197 0)
(0.136804 2.10525 0)
(0.360896 2.11932 0)
(0.561837 1.89017 0)
(0.853884 1.31218 0)
(0.930408 0.554493 0)
(0.780578 -0.152641 0)
(0.61786 -0.628235 0)
(0.539217 -0.713166 0)
(0.270967 -0.750706 0)
(0.225743 -0.658329 0)
(0.292206 -0.511693 0)
(0.13108 -0.521678 0)
(0.135185 -0.507185 0)
(0.139967 -0.525449 0)
(0.18015 -0.3963 0)
(0.0726532 -0.45848 0)
(0.0595885 -0.721922 0)
(0.102449 -0.48195 0)
(0.0878612 -0.69438 0)
(-0.0318255 3.38652 0)
(-0.0141193 2.75645 0)
(0.0668064 2.49428 0)
(0.0302041 2.43685 0)
(0.153779 2.14856 0)
(0.492412 2.22921 0)
(0.426136 2.09487 0)
(0.557284 1.3216 0)
(0.250237 0.151886 0)
(0.541552 -0.485562 0)
(0.596806 -0.658797 0)
(0.466364 -0.635474 0)
(0.34558 -0.674479 0)
(0.430567 -0.633834 0)
(0.289589 -0.592172 0)
(0.0262599 -0.47523 0)
(0.112948 -0.522206 0)
(0.160072 -0.437719 0)
(0.22609 -0.464555 0)
(-0.0154451 -0.579283 0)
(-0.0149966 -0.472186 0)
(0.098941 -0.499649 0)
(0.0231137 -0.460522 0)
(-0.0214561 3.38796 0)
(-0.0207763 2.79145 0)
(0.117652 2.53696 0)
(0.0643361 2.47769 0)
(0.0689189 2.6164 0)
(0.386265 2.28925 0)
(0.100023 1.94684 0)
(0.449889 1.04176 0)
(0.609205 0.15449 0)
(0.733736 -0.222216 0)
(0.635429 -0.507728 0)
(0.414253 -0.508272 0)
(0.26409 -0.596787 0)
(0.293767 -0.553929 0)
(0.466383 -0.606805 0)
(0.265944 -0.573498 0)
(0.176833 -0.537316 0)
(0.181514 -0.568962 0)
(0.0660773 -0.466029 0)
(0.0478948 -0.737317 0)
(0.0835991 -0.404374 0)
(0.0425557 -0.423885 0)
(-0.0238668 -0.328638 0)
(0.0400093 3.44385 0)
(0.0277717 2.7763 0)
(0.106476 2.52828 0)
(0.0297453 2.53611 0)
(-0.154059 2.59315 0)
(0.212767 2.20196 0)
(-0.208055 1.46869 0)
(-0.0448203 0.522173 0)
(0.572476 0.00438952 0)
(0.641265 -0.242529 0)
(0.575384 -0.574134 0)
(0.362687 -0.532192 0)
(0.281951 -0.538085 0)
(0.420487 -0.453305 0)
(0.292801 -0.522994 0)
(0.115961 -0.612669 0)
(0.125546 -0.499538 0)
(0.231112 -0.572313 0)