/*--------------------------------*- C++ -*----------------------------------*\
| =========                 |                                                 |
| \\      /  F ield         | foam-extend: Open Source CFD                    |
|  \\    /   O peration     | Version:     4.1                                |
|   \\  /    A nd           | Web:         http://www.foam-extend.org         |
|    \\/     M anipulation  |                                                 |
\*---------------------------------------------------------------------------*/
FoamFile
{
    version     2.0;
    format      ascii;
    class       volScalarField;
    location    "0.05";
    object      alpha1;
}
// * * * * * * * * * * * * * * * * * * * * * * * * * * * * * * * * * * * * * //

dimensions      [0 0 0 0 0 0 0];

internalField   nonuniform List<scalar> 
2268
(
1
1
1
1
1
1
1
1
1
1
1
1
0.998664
0.97261
0.57329
0.0771995
0.00134595
1.26327e-06
1.83717e-11
6.4839e-19
8.83438e-25
2.98007e-26
3.68085e-28
1
1
1
1
1
1
1
1
1
1
1
1
0.99311
0.824346
0.23974
0.017669
0.000198582
1.17792e-07
8.74066e-13
1.69683e-20
8.66835e-25
2.82882e-26
2.31844e-28
1
1
1
1
1
1
1
1
1
1
1
1
0.980623
0.604793
0.0945207
0.00304215
1.01765e-05
1.24485e-09
1.51678e-15
7.02624e-23
1.45125e-24
2.3255e-26
1.65336e-28
1
1
1
1
1
1
1
1
1
1
1
1
0.955738
0.426466
0.0409775
0.000697351
8.78963e-07
2.53245e-11
4.46804e-18
1.30626e-23
5.40879e-25
1.15468e-26
1.3815e-28
1
1
1
1
1
1
1
1
1
1
1
1
0.917725
0.308874
0.0207676
0.000214378
1.21897e-07
1.23135e-12
9.77293e-20
5.35002e-24
2.97774e-25
1.06611e-26
1.44e-28
1
1
1
1
1
1
1
1
1
1
1
1
0.869857
0.23239
0.0116895
7.25802e-05
1.94282e-08
7.85678e-14
2.49673e-21
4.76873e-24
3.17579e-25
8.4611e-27
1.5405e-28
1
1
1
1
1
1
1
1
1
1
1
1
0.818485
0.182344
0.00684861
2.48136e-05
3.24199e-09
5.5231e-15
1.72237e-22
5.18486e-24
1.78366e-25
5.708e-27
1.55941e-28
1
1
1
1
1
1
1
1
1
1
1
1
0.772705
0.148207
0.00419952
8.60334e-06
5.02686e-10
3.60823e-16
5.36076e-23
2.02548e-24
7.0576e-26
3.0533e-27
1.01068e-28
1.11287e-56
3.45721e-59
3.39101e-62
1.5046e-65
3.02703e-69
1.71442e-73
4.66453e-78
0
0
0
0
0
0
0
0
0
0
0
0
5.68205e-53
2.07469e-55
2.16017e-58
1.29083e-61
4.7151e-65
9.32509e-69
5.32848e-73
1.42235e-77
0
0
0
0
0
0
0
0
0
0
0
1.1746e-49
5.08628e-52
5.79529e-55
3.97555e-58
1.96323e-61
6.96432e-65
1.35791e-68
7.3847e-73
1.79856e-77
0
0
0
0
0
0
0
0
0
0
1.25365e-46
6.2632e-49
8.52311e-52
6.90396e-55
3.96478e-58
1.91674e-61
6.66651e-65
1.22429e-68
6.0003e-73
1.29084e-77
0
0
0
0
0
0
0
0
0
7.61324e-44
4.17154e-46
7.2038e-49
7.36736e-52
5.03931e-55
2.85146e-58
1.32744e-61
4.25304e-65
6.94108e-69
2.94949e-73
5.37146e-78
0
0
0
0
0
0
0
0
2.45732e-41
1.60083e-43
3.56331e-46
4.76432e-49
4.20761e-52
2.82088e-55
1.48618e-58
6.12017e-62
1.69239e-65
2.31698e-69
8.21502e-74
1.21642e-78
0
0
0
0
0
0
0
4.18437e-39
3.31385e-41
1.04171e-43
1.79185e-46
2.08415e-49
1.66547e-52
9.53185e-56
4.16754e-59
1.42816e-62
3.24784e-66
3.69196e-70
1.08268e-74
1.35803e-79
0
0
0
0
0
0
3.73212e-37
3.53129e-39
1.54615e-41
3.21798e-44
3.45399e-47
2.73445e-50
1.70213e-53
8.10913e-57
3.11186e-60
9.52525e-64
2.00508e-67
2.10599e-71
5.76863e-76
6.49041e-81
0
0
0
0
0
1
1
1
1
1
1
1
1
1
1
1
1
0.702917
0.112532
0.00251058
3.16987e-06
9.52699e-11
3.15915e-17
1.71798e-23
6.70353e-25
2.74243e-26
1.11086e-27
4.1938e-29
1
1
1
1
1
1
1
1
1
1
1
1
0.600601
0.0675918
0.000842862
4.36343e-07
4.46756e-12
7.32749e-19
6.20322e-24
2.6206e-25
1.21174e-26
4.79409e-28
2.00363e-29
1
1
1
1
1
1
1
1
1
1
1
1
0.520495
0.0437103
0.000333194
7.37317e-08
2.42605e-13
1.34234e-20
2.35336e-24
1.26191e-25
5.28011e-27
2.06049e-28
7.49251e-30
1
1
1
1
1
1
1
1
1
1
1
1
0.450088
0.0282012
0.0001316
1.4461e-08
1.86717e-14
3.23354e-22
1.42004e-24
7.1779e-26
2.69956e-27
1.01962e-28
3.68305e-30
1
1
1
1
1
1
1
1
1
1
1
1
0.388904
0.0181953
5.08842e-05
2.78374e-09
1.44343e-15
2.72887e-23
8.21311e-25
3.01535e-26
1.20897e-27
4.66182e-29
1.60874e-30
1
1
1
1
1
1
1
1
1
1
1
1
0.336263
0.01178
1.89598e-05
4.91459e-10
1.06065e-16
8.65216e-24
3.01716e-25
1.19558e-26
5.04946e-28
1.93291e-29
6.09685e-31
1
1
1
1
1
1
1
1
1
1
1
1
0.290938
0.00765795
6.87388e-06
7.84339e-11
7.68336e-18
3.25505e-24
1.20423e-25
5.08569e-27
2.10348e-28
7.38144e-30
2.00181e-31
1
1
1
1
1
1
1
1
1
1
1
1
0.251938
0.00500637
2.42813e-06
1.17412e-11
4.56677e-19
1.36006e-24
5.41023e-26
2.28604e-27
8.71827e-29
2.65362e-30
6.00318e-32
1
1
1
1
1
1
1
1
1
1
1
1
0.21849
0.00329121
8.2335e-07
1.62675e-12
2.83794e-20
6.8696e-25
2.83638e-26
1.12686e-27
3.73703e-29
9.45992e-31
1.74808e-32
1
1
1
1
1
1
1
1
1
1
1
1
0.189998
0.00216964
3.09221e-07
3.16273e-13
2.99236e-21
4.13643e-25
1.7154e-26
6.05776e-28
1.66199e-29
3.38758e-31
5.03501e-33
1
1
1
1
1
1
1
1
1
1
1
1
0.165957
0.00145164
1.09462e-07
7.83785e-14
6.75392e-22
3.46695e-25
1.23975e-26
3.61994e-28
7.92379e-30
1.27087e-31
1.48867e-33
1
1
1
1
1
1
1
1
1
1
1
1
0.146385
0.000967262
5.99712e-08
4.88398e-14
4.55192e-22
3.33659e-25
1.00862e-26
2.37495e-28
4.10413e-30
4.87556e-32
3.81186e-34
1
1
1
1
1
1
1
1
1
1
1
1
0.135451
0.000746151
5.0487e-08
5.64102e-14
6.15577e-22
3.63063e-25
1.01177e-26
1.96875e-28
2.16084e-30
1.42199e-32
6.65294e-35
1
1
1
1
1
1
1
1
1
1
1
1
0.128733
0.000752786
7.71961e-08
1.40773e-13
2.25648e-21
4.77772e-25
1.19947e-26
1.54673e-28
1.12087e-30
4.49547e-33
9.47968e-36
1
1
1
1
1
1
1
1
1
1
1
1
0.111348
0.000345794
7.51095e-08
4.78493e-13
3.59441e-20
1.76819e-24
2.23328e-26
1.81405e-28
6.8746e-31
3.9183e-34
2.59184e-37
0.999996
0.999996
0.999995
0.999995
0.999994
0.999993
0.999992
0.99999
0.999988
0.999985
0.999987
0.999929
0.154478
0.00184506
9.07628e-07
9.53402e-12
1.06973e-18
2.57867e-24
2.63891e-26
5.60256e-29
2.66635e-32
1.76852e-35
8.03548e-39
0.99705
0.997
0.996903
0.996752
0.99654
0.996262
0.995902
0.995438
0.994841
0.993942
0.993571
0.98419
0.336836
0.0192892
4.86305e-05
3.40323e-09
2.10244e-15
6.85895e-24
1.98937e-27
3.87409e-30
8.42576e-34
5.83714e-37
2.41235e-40
0.870412
0.869398
0.867446
0.864454
0.86041
0.855287
0.848961
0.841263
0.832058
0.817946
0.801266
0.67938
0.294108
0.0352989
0.000409406
2.39245e-07
7.23777e-13
3.65842e-25
1.50073e-28
2.14082e-31
2.34037e-35
1.3484e-38
6.10158e-42
0.25908
0.257322
0.253951
0.248871
0.24216
0.233897
0.224042
0.21254
0.1995
0.179513
0.150436
0.0581171
0.0253455
0.0255646
0.00376104
1.84199e-05
5.76725e-14
1.99552e-26
1.00311e-29
8.99703e-33
6.89298e-37
2.70959e-40
1.22557e-43
5.82782e-47
2.70994e-31
4.71365e-29
5.73305e-27
0
1.45172e-23
3.12736e-21
5.60458e-16
7.49607e-12
3.66057e-09
1.91e-07
4.24241e-06
0.000137623
0.000915826
0.000716869
3.1625e-06
2.86078e-16
1.13046e-27
5.77738e-31
2.76087e-34
2.16936e-38
4.77326e-42
1.8904e-45
4.59868e-33
2.0463e-30
3.6771e-28
3.47049e-26
1.84286e-24
5.46623e-23
7.90533e-22
4.73352e-21
6.94057e-17
3.78645e-12
4.95422e-09
2.79983e-07
2.86392e-06
1.31565e-05
2.41547e-05
6.34948e-08
1.05545e-18
7.59552e-29
2.719e-32
6.15038e-36
6.02846e-40
8.12469e-44
2.4803e-47
2.1281e-35
1.06712e-32
2.20458e-30
2.51229e-28
1.70572e-26
7.28781e-25
2.41887e-23
9.81682e-22
5.68877e-20
5.88954e-16
4.28497e-13
2.84035e-11
7.35178e-10
1.24443e-08
5.27906e-08
5.27343e-11
1.10718e-19
5.55683e-30
9.77835e-34
9.94661e-38
1.22635e-41
1.31173e-45
2.91112e-49
5.18911e-45
2.29875e-41
6.41348e-38
1.04298e-34
9.9472e-32
5.77054e-29
1.6803e-26
2.58822e-24
1.84423e-22
6.20075e-21
1.10909e-19
1.13147e-18
6.74168e-16
1.19431e-13
1.22818e-12
4.81856e-16
4.99851e-21
3.12494e-31
2.503e-35
1.20369e-39
1.68541e-43
1.7832e-47
3.06308e-51
7.85786e-49
1.42091e-45
9.6783e-43
3.56931e-40
7.98848e-38
1.0526e-35
1.28961e-33
1.14406e-31
6.9537e-30
3.00765e-28
1.35797e-26
4.36909e-25
8.9467e-24
9.90362e-23
4.68008e-22
1.64415e-22
8.07787e-23
9.92846e-33
4.22912e-37
1.15455e-41
1.54785e-45
1.79655e-49
2.62637e-53
2.03439e-53
5.50561e-50
6.20205e-47
3.97947e-44
1.64676e-41
4.77807e-39
8.69134e-37
9.85691e-35
6.61215e-33
2.56577e-31
6.66128e-30
1.28172e-28
1.84409e-27
1.95363e-26
1.58345e-25
1.03884e-24
3.97636e-25
1.83453e-34
4.02513e-39
8.97447e-44
9.73112e-48
1.23699e-51
1.64303e-55
4.32694e-58
2.85968e-54
6.36753e-51
6.80759e-48
4.15283e-45
1.57718e-42
3.40383e-40
4.21846e-38
3.15683e-36
1.51462e-34
5.1373e-33
1.28326e-31
2.3364e-30
3.0046e-29
2.65828e-28
1.21517e-27
4.70151e-28
1.71839e-36
2.29393e-41
5.93379e-46
4.07783e-50
5.40248e-54
6.85996e-58
8.84578e-63
9.40712e-59
2.89294e-55
3.96859e-52
2.76228e-49
1.00796e-46
2.01525e-44
2.36168e-42
1.67694e-40
7.61965e-39
2.38122e-37
5.1626e-36
7.65486e-35
7.45641e-34
4.47606e-33
1.29861e-32
1.18548e-31
6.17121e-39
7.46383e-44
3.11826e-48
1.25291e-52
1.50293e-56
1.79039e-60
0
4.06589e-83
1.00423e-78
1.60804e-74
1.31568e-70
1.03809e-66
3.24813e-63
4.95334e-60
4.40711e-57
2.23863e-54
9.35964e-52
2.87229e-49
1.15975e-46
4.62104e-44
2.35146e-41
1.36887e-39
2.20454e-38
8.85345e-42
1.13614e-46
1.06194e-50
3.18458e-55
2.85223e-59
2.95595e-63
0
0
2.2148e-84
2.35792e-80
2.41921e-76
6.61727e-73
3.45157e-69
1.72901e-66
3.59847e-64
4.18288e-62
3.15278e-60
2.38838e-58
4.5889e-56
1.26202e-53
2.5722e-51
4.06881e-49
4.37517e-47
3.88668e-45
7.74545e-50
1.89171e-53
6.49906e-58
3.78691e-62
3.04895e-66
0
0
0
0
0
9.74671e-85
5.06741e-81
2.44277e-77
1.00427e-73
6.44543e-70
1.06194e-66
1.36587e-63
6.98687e-61
2.76549e-58
6.34607e-56
1.19266e-53
7.51288e-52
1.51811e-50
2.35282e-53
1.53086e-56
9.14392e-61
3.88671e-65
2.13269e-69
0
0
0
0
0
0
5.8697e-87
2.96265e-83
5.24024e-80
1.81213e-76
7.51776e-74
1.38153e-71
1.43501e-69
9.252e-68
3.80798e-66
1.37158e-64
2.4426e-62
7.89701e-60
2.59072e-57
5.78716e-60
7.16262e-64
3.06115e-68
1.11292e-72
0
0
0
0
0
0
0
0
0
0
8.49303e-87
4.28462e-83
1.96656e-79
4.01443e-76
6.43675e-73
5.04395e-70
3.58895e-67
3.69385e-65
1.07702e-63
1.00976e-63
2.81637e-67
1.56464e-71
4.82936e-76
0
0
0
0
0
0
0
0
0
0
0
7.07328e-90
4.07084e-86
1.70813e-83
3.02001e-81
2.91362e-79
4.673e-77
7.48961e-74
8.09206e-71
7.03792e-68
5.12868e-71
3.96004e-75
1.24835e-79
0
0
0
0
0
0
0
0
0
0
0
0
0
0
1.29582e-90
2.33973e-86
1.48409e-82
6.47105e-79
6.89042e-76
8.09048e-73
3.82178e-75
3.8943e-79
1.10908e-83
0
0
0
0
0
0
0
0
0
0
0
0
0
0
0
3.43056e-93
1.26953e-90
1.78944e-88
1.38419e-86
1.97549e-83
1.09973e-79
1.6903e-83
4.15663e-88
0
0
0
0
0
0
0
0
0
0
0
0
0
0
0
0
0
0
3.70669e-93
7.50741e-89
7.77137e-85
2.10227e-88
3.32361e-93
0
0
0
0
0
0
0
0
0
0
0
0
0
0
0
0
0
0
0
2.57894e-95
6.52162e-91
8.00959e-94
0
0
0
0
0
0
0
0
0
0
0
0
0
0
0
0
0
0
0
0
0
0
0
0
0
0
0
0
0
0
0
0
0
0
0
0
0
0
0
0
0
0
0
0
0
0
0
0
0
0
0
0
0
0
0
0
0
0
0
0
0
0
0
0
0
0
0
0
0
0
0
0
0
0
0
0
0
0
0
0
0
0
0
0
0
0
0
0
0
0
0
0
0
0
0
0
0
0
0
0
0
0
0
0
0
0
0
0
0
0
0
0
0
0
0
0
4.28537e-30
2.85097e-31
1.58228e-32
8.23101e-34
1.69585e-30
1.30681e-31
8.58366e-33
4.37739e-34
5.55444e-31
4.03915e-32
2.37033e-33
1.03251e-34
2.45406e-31
1.41028e-32
6.51122e-34
2.24375e-35
9.42312e-32
4.36152e-33
1.5746e-34
4.24518e-36
3.03427e-32
1.13479e-33
3.2227e-35
6.86152e-37
8.22015e-33
2.52106e-34
5.83494e-36
1.02912e-37
2.03733e-33
5.20812e-35
1.01511e-36
1.54139e-38
4.8678e-34
1.03432e-35
1.71499e-37
2.26639e-39
1.13664e-34
1.99092e-36
2.77884e-38
3.12496e-40
2.60812e-35
3.5755e-37
3.94068e-39
3.54162e-41
4.51271e-36
4.424e-38
3.68295e-40
2.61624e-42
4.91734e-37
3.27445e-39
2.01579e-41
1.13277e-43
3.32341e-38
1.3827e-40
6.28903e-43
2.86996e-45
8.0686e-40
2.92248e-42
1.12173e-44
4.43571e-47
1.91648e-41
5.90558e-44
1.95193e-46
6.47557e-49
4.34562e-43
1.10429e-45
3.08084e-48
8.46669e-51
9.18658e-45
1.89652e-47
4.2562e-50
9.26649e-53
1.63712e-46
2.85323e-49
5.1491e-52
8.77493e-55
2.28481e-48
3.4333e-51
5.03026e-54
6.75443e-57
2.60691e-50
3.32002e-53
3.91695e-56
4.13316e-59
2.4719e-52
2.56038e-55
2.38605e-58
1.94934e-61
1.97302e-54
1.58309e-57
1.13743e-60
7.15864e-64
1.28473e-56
7.7884e-60
4.18207e-63
2.00107e-66
6.38988e-59
2.98582e-62
1.19886e-65
4.30097e-69
2.22071e-61
8.21972e-65
2.55368e-68
7.01832e-72
4.96485e-64
1.45945e-67
3.51264e-71
7.14361e-75
6.92598e-67
1.61658e-70
3.05572e-74
4.72775e-78
5.68655e-70
1.00838e-73
1.47642e-77
1.72676e-81
3.03002e-73
4.13536e-77
4.41502e-81
3.37849e-85
1.06752e-76
1.03372e-80
7.58102e-85
3.30917e-89
2.75497e-80
1.49014e-84
5.88646e-89
9.09535e-95
4.47887e-84
1.15835e-88
4.59589e-94
0
2.4512e-88
1.42896e-93
0
0
3.87486e-93
0
0
0
0
0
0
0
0
0
0
0
0
0
0
0
0
0
0
0
0
0
0
0
0
0
0
0
0
0
0
0
1.67112e-35
1.49618e-37
6.98359e-40
1.80233e-42
2.85598e-45
2.87846e-48
2.06778e-51
1.07673e-54
4.33744e-58
1.41089e-61
3.76415e-65
6.79682e-69
6.17937e-73
1.42639e-77
1.36049e-82
0
0
0
0
7.05073e-36
5.81426e-38
2.4357e-40
5.67856e-43
8.23346e-46
8.28359e-49
5.80904e-52
2.91658e-55
1.1266e-58
3.44255e-62
7.97109e-66
1.14186e-69
7.5346e-74
1.63582e-78
1.50352e-83
0
0
0
0
1.35567e-36
9.5917e-39
3.76635e-41
9.02643e-44
1.36622e-46
1.42161e-49
1.04464e-52
5.70839e-56
2.44187e-59
7.98752e-63
1.75834e-66
2.05586e-70
8.72068e-75
1.80041e-79
1.63533e-84
0
0
0
0
2.3811e-37
1.58115e-39
5.78683e-42
1.34717e-44
2.11731e-47
2.22923e-50
1.68574e-53
9.61235e-57
4.21937e-60
1.3234e-63
2.58393e-67
2.55001e-71
9.8736e-76
1.97064e-80
1.76977e-85
0
0
0
0
3.56147e-38
2.01e-40
7.2657e-43
1.71501e-45
2.78548e-48
3.1697e-51
2.59657e-54
1.59923e-57
7.22067e-61
2.1419e-64
3.57029e-68
2.76917e-72
1.05719e-76
2.06472e-81
1.85041e-86
0
0
0
0
4.6702e-39
2.31106e-41
8.25084e-44
1.99176e-46
3.30745e-49
3.97061e-52
3.50957e-55
2.27246e-58
1.0155e-61
2.80259e-65
4.14563e-69
2.82653e-73
1.06829e-77
2.05413e-82
1.85019e-87
0
0
0
0
6.03154e-40
2.69049e-42
8.95034e-45
2.14875e-47
3.66936e-50
4.58181e-53
4.22781e-56
2.76024e-59
1.17394e-62
2.90735e-66
3.77076e-70
2.58146e-74
9.75044e-79
1.86602e-83
1.70688e-88
0
0
0
0
7.97015e-41
3.19063e-43
9.76976e-46
2.26793e-48
3.94111e-51
5.10779e-54
4.82441e-57
3.10085e-60
1.23139e-63
2.68479e-67
2.94295e-71
2.02442e-75
7.7267e-80
1.49894e-84
1.41249e-89
0
0
0
0
1.03021e-41
3.64579e-44
1.00729e-46
2.17599e-49
3.64259e-52
4.57929e-55
4.09431e-58
2.41362e-61
8.60561e-65
1.71333e-68
1.90802e-72
1.32939e-76
5.2088e-81
1.04652e-85
1.03235e-90
0
0
0
0
1.21413e-42
3.71958e-45
9.14819e-48
1.83221e-50
2.93016e-53
3.52549e-56
2.95091e-59
1.57759e-62
4.95549e-66
8.78217e-70
1.00236e-73
7.2225e-78
2.97147e-82
6.29654e-87
6.59946e-92
0
0
0
0
1.12284e-43
2.89574e-46
6.26382e-49
1.13822e-51
1.66672e-54
1.82942e-57
1.38844e-60
6.75346e-64
1.98895e-67
3.55826e-71
4.22732e-75
3.20417e-79
1.40838e-83
3.22546e-88
3.63206e-93
0
0
0
0
6.80174e-45
1.51743e-47
2.94989e-50
4.88221e-53
6.50486e-56
6.47903e-59
4.48303e-62
2.0277e-65
5.8278e-69
1.09539e-72
1.38782e-76
1.13006e-80
5.38896e-85
1.34841e-89
1.63571e-94
0
0
0
0
2.44868e-46
4.85551e-49
8.63559e-52
1.3071e-54
1.58211e-57
1.4334e-60
9.17384e-64
3.98582e-67
1.16931e-70
2.37212e-74
3.28216e-78
2.9168e-82
1.51793e-86
4.14073e-91
5.39231e-96
0
0
0
0
5.25774e-48
9.38395e-51
1.51099e-53
2.04729e-56
2.19882e-59
1.77954e-62
1.04807e-65
4.43264e-69
1.34829e-72
2.9111e-76
4.33368e-80
4.15962e-84
2.37352e-88
7.21824e-93
1.00518e-97
0
0
0
0
7.12287e-50
1.15241e-52
1.6512e-55
1.95823e-58
1.82477e-61
1.29168e-64
6.8319e-68
2.69391e-71
7.86655e-75
1.66532e-78
2.45223e-82
2.3604e-86
1.37467e-90
4.34179e-95
6.08322e-100
0
0
0
0
8.3075e-52
1.01187e-54
1.19653e-57
1.21855e-60
9.77683e-64
6.08797e-67
2.94514e-70
1.08904e-73
2.96718e-77
5.71006e-81
7.25965e-85
5.66936e-89
2.49167e-93
5.53913e-98
2.88083e-103
0
0
0
0
8.46343e-54
7.6909e-57
6.75034e-60
5.21871e-63
3.76524e-66
2.12076e-69
9.18781e-73
2.96403e-76
6.86485e-80
1.07021e-83
1.05005e-87
6.0221e-92
1.86848e-96
1.89867e-101
1.30067e-110
0
0
0
0
7.04543e-56
4.83655e-59
3.22051e-62
1.85539e-65
1.01257e-68
4.82043e-72
1.78103e-75
4.77079e-79
8.73081e-83
1.02814e-86
7.29948e-91
2.91496e-95
4.34197e-100
6.84286e-109
0
0
0
0
0
4.99605e-58
2.56068e-61
1.24844e-64
5.59211e-68
2.23306e-71
7.87289e-75
2.17119e-78
4.55705e-82
6.28223e-86
5.34079e-90
2.61837e-94
5.1381e-99
1.36808e-107
0
0
0
0
0
0
2.92853e-60
1.13272e-63
4.02721e-67
1.34125e-70
3.90611e-74
1.02661e-77
1.97531e-81
2.8116e-85
2.65652e-89
1.55242e-93
3.78751e-98
1.49689e-106
0
0
0
0
0
0
0
1.38217e-62
3.94188e-66
1.02302e-69
2.54464e-73
5.37058e-77
9.96401e-81
1.3256e-84
1.23638e-88
7.33142e-93
1.9909e-97
1.05333e-105
0
0
0
0
0
0
0
0
4.9263e-65
1.04752e-68
2.00363e-72
3.67658e-76
5.7074e-80
7.19538e-84
6.29329e-88
3.68503e-92
1.0335e-96
6.42395e-105
0
0
0
0
0
0
0
0
0
1.33185e-67
2.04509e-71
2.99066e-75
4.03484e-79
4.36181e-83
3.6483e-87
2.04488e-91
5.66282e-96
4.19895e-104
0
0
0
0
0
0
0
0
0
0
2.78181e-70
3.1646e-74
3.42319e-78
3.19477e-82
2.4417e-86
1.24595e-90
3.33662e-95
2.92539e-103
0
0
0
0
0
0
0
0
0
0
0
4.44166e-73
3.59853e-77
2.95424e-81
1.81902e-85
8.51002e-90
2.11183e-94
2.34898e-102
0
0
0
0
0
0
0
0
0
0
0
0
5.32193e-76
3.09241e-80
1.6586e-84
6.46113e-89
1.53587e-93
1.96513e-101
0
0
0
0
0
0
0
0
0
0
0
0
0
3.88761e-79
1.76175e-83
5.74023e-88
1.11532e-92
2.03102e-100
0
0
0
0
0
0
0
0
0
0
0
0
0
0
1.86053e-82
5.24076e-87
8.87699e-92
2.37371e-99
0
0
0
0
0
0
0
0
0
0
0
0
0
0
0
4.9498e-86
7.72058e-91
2.82574e-98
0
0
0
0
0
0
0
0
0
0
0
0
0
0
0
0
5.53989e-90
4.11886e-97
0
0
0
0
0
0
0
0
0
0
0
0
0
0
0
0
0
7.11926e-96
0
0
0
0
0
0
0
0
0
0
0
0
0
0
0
0
0
0
0
0
0
0
0
0
0
0
0
0
0
0
0
0
0
0
0
0
0
0
0
0
0
0
0
0
0
0
0
0
0
0
0
0
0
0
0
0
0
0
0
0
0
0
0
0
0
0
0
0
0
0
0
0
0
0
0
0
0
0
0
0
0
0
0
0
0
0
0
0
0
0
0
0
0
0
0
0
0
0
0
0
0
0
0
0
0
0
0
0
0
0
0
0
0
0
0
0
0
0
0
0
0
0
0
0
0
0
0
0
0
0
0
0
0
0
0
0
0
0
0
0
0
0
0
0
0
0
0
0
0
0
0
0
0
0
0
0
0
0
0
0
0
0
0
0
0
0
0
0
0
0
0
0
0
0
0
0
0
0
0
0
0
0
0
0
0
0
0
0
0
0
0
0
0
0
0
0
0
0
0
0
0
0
0
0
0
0
0
0
0
0
0
0
0
0
0
0
0
0
0
0
0
0
0
0
0
0
0
)
;

boundaryField
{
    leftWall
    {
        type            zeroGradient;
    }
    rightWall
    {
        type            zeroGradient;
    }
    lowerWall
    {
        type            zeroGradient;
    }
    atmosphere
    {
        type            inletOutlet;
        inletValue      uniform 0;
        value           uniform 0;
    }
    defaultFaces
    {
        type            empty;
    }
}


// ************************************************************************* //
