/*--------------------------------*- C++ -*----------------------------------*\
| =========                 |                                                 |
| \\      /  F ield         | foam-extend: Open Source CFD                    |
|  \\    /   O peration     | Version:     4.1                                |
|   \\  /    A nd           | Web:         http://www.foam-extend.org         |
|    \\/     M anipulation  |                                                 |
\*---------------------------------------------------------------------------*/
FoamFile
{
    version     2.0;
    format      ascii;
    class       volScalarField;
    location    "0.05";
    object      p;
}
// * * * * * * * * * * * * * * * * * * * * * * * * * * * * * * * * * * * * * //

dimensions      [1 -1 -2 0 0 0 0];

internalField   nonuniform List<scalar> 
2268
(
1626.32
1608.82
1573.69
1520.76
1449.81
1360.7
1253.56
1129.08
990.973
845.481
688.662
635.516
440.822
214.898
57.7287
7.80536
3.38149
3.12911
3.04398
2.82629
2.74099
2.73403
2.72321
1567.71
1550.18
1514.99
1461.98
1390.94
1301.69
1194.31
1069.23
930.302
785.502
640.033
564.267
367.507
138.189
23.8436
4.51103
3.08907
3.04177
2.93881
2.74369
2.67541
2.65521
2.64672
1509.33
1491.75
1456.46
1403.29
1332.05
1242.57
1134.77
1008.32
870.734
726.183
615.235
500.499
297.255
76.1403
9.91843
3.39615
2.89575
2.92161
2.80677
2.65124
2.59774
2.55573
2.55194
1451.21
1433.54
1398.09
1344.69
1273.16
1183.34
1074.99
948.925
804.046
701.698
571.462
435.918
228.269
39.5956
5.81672
2.90053
2.73747
2.79207
2.68077
2.56348
2.50676
2.45156
2.43952
1393.34
1375.57
1339.92
1286.21
1214.29
1124
1015.05
889.099
758.896
663.865
528.002
373.972
168.989
22.804
4.50417
2.64557
2.5559
2.65658
2.56726
2.46732
2.40131
2.34103
2.30424
1335.71
1317.84
1281.97
1227.92
1155.54
1064.7
955.092
824.882
731.996
623.223
484.543
316.505
120.754
14.6288
3.78651
2.48519
2.41862
2.52193
2.4525
2.35654
2.28118
2.21591
2.14119
1278.36
1260.4
1224.36
1170.03
1097.17
1005.55
893.524
779.087
698.794
584.6
445.201
271.167
82.3931
9.79919
3.27626
2.34928
2.32547
2.38554
2.33426
2.23414
2.14846
2.07749
1.95906
1221.22
1203.25
1167.14
1112.58
1039.09
945.722
833.135
745.706
663.018
547.48
409.965
238.226
55.6689
6.87484
2.87533
2.22253
2.21844
2.24982
2.21548
2.10546
2.00293
1.93226
1.8039
1.31118
1.30268
1.28105
1.24621
1.20737
1.16892
1.13219
1.09842
1.06664
1.03493
1.00204
0.967349
0.931354
0.896066
0.865137
0.840342
0.821975
0.809877
0.803864
1.25551
1.2482
1.22376
1.18816
1.14862
1.10984
1.07312
1.03918
1.00699
0.974948
0.941791
0.906901
0.870803
0.835636
0.804944
0.780352
0.762127
0.750119
0.744151
1.20303
1.1986
1.168
1.13092
1.09006
1.05068
1.01358
0.97918
0.946391
0.913806
0.880182
0.844944
0.808696
0.773839
0.743627
0.719436
0.701493
0.689662
0.683779
1.15299
1.14843
1.11347
1.0744
1.03171
0.991309
0.95351
0.918327
0.884722
0.851411
0.817165
0.781478
0.745133
0.710843
0.68134
0.657722
0.640182
0.628603
0.622842
1.10515
1.09807
1.06025
1.01852
0.973686
0.931665
0.892711
0.856376
0.821764
0.78759
0.752604
0.716423
0.680217
0.646763
0.618157
0.595255
0.57822
0.56696
0.561354
1.05918
1.05066
1.00836
0.963269
0.915454
0.871526
0.830728
0.792956
0.75722
0.722099
0.68632
0.649761
0.614112
0.581716
0.554157
0.532092
0.515653
0.504769
0.499348
1.01795
1.00592
0.957549
0.908941
0.85758
0.809963
0.766836
0.727625
0.690752
0.654686
0.618199
0.581775
0.547036
0.515871
0.489489
0.468361
0.452592
0.442135
0.436922
1.0023
0.963042
0.907915
0.856953
0.796838
0.74557
0.700591
0.660177
0.622223
0.585373
0.548785
0.51293
0.479296
0.449508
0.424401
0.404283
0.389236
0.37924
0.374253
1132.49
1114.52
1078.36
1023.29
947.792
848.343
767.592
693.505
606.116
492.528
359.773
194.757
42.4172
4.91838
2.3832
2.01339
2.03124
2.04615
2.01119
1.88947
1.79621
1.69324
1.48127
1015.42
997.254
960.316
902.874
832.563
766.124
699.211
625.607
538.969
432.06
309.494
155.748
21.0409
2.71315
1.7032
1.71065
1.755
1.77472
1.72018
1.61228
1.52885
1.41574
1.26265
898.559
880.264
846.501
800.864
747.635
690.625
628.494
557.914
475.339
375.921
264.613
126.145
12.6383
1.95493
1.33635
1.42385
1.4676
1.48968
1.44577
1.36007
1.2885
1.1708
1.09067
786.669
772.253
745.306
708.371
663.756
612.881
555.044
488.329
410.707
319.249
220.544
100.375
8.08212
1.5463
1.10494
1.15372
1.19143
1.2053
1.18496
1.12349
1.05105
0.975106
0.896598
683.714
672.151
650.039
618.813
579.692
533.256
479.224
416.653
344.667
262.314
177.984
77.2198
5.64576
1.25994
0.914341
0.912524
0.946584
0.959729
0.94946
0.913681
0.832922
0.76071
0.689321
587.738
577.983
558.957
531.379
495.881
452.826
402.291
344.198
278.914
207.355
138.767
56.9757
3.67241
0.960425
0.705912
0.698701
0.727398
0.739103
0.723831
0.668908
0.596855
0.534173
0.47208
497.443
488.817
471.766
446.61
413.695
373.396
326.244
273.111
215.662
156.22
103.743
40.1935
2.10505
0.642803
0.474849
0.484719
0.508559
0.510069
0.474112
0.408891
0.350817
0.299291
0.249498
412.519
404.701
389.102
365.811
335.01
297.154
253.284
205.314
156.233
109.306
72.531
26.7074
1.0722
0.332123
0.234025
0.248743
0.264892
0.240623
0.192554
0.142152
0.0988602
0.0603092
0.0252422
333.344
326.299
312.132
290.744
262.118
226.622
185.638
142.181
100.863
66.0158
44.4153
16.0494
0.345912
0.0182167
-0.0188136
-0.00869732
-0.0188616
-0.0554181
-0.0942186
-0.128685
-0.158151
-0.183666
-0.205683
260.181
254.117
241.834
223.096
197.592
165.046
126.441
85.7455
50.1257
26.2108
19.4644
7.97381
-0.198814
-0.293736
-0.282199
-0.283909
-0.315286
-0.347591
-0.375412
-0.398629
-0.417482
-0.432763
-0.445981
192.884
188.198
178.716
164.161
144.266
117.252
81.996
42.4335
10.4356
-5.40611
0.0922326
2.60984
-0.616705
-0.595319
-0.541472
-0.573865
-0.602284
-0.626665
-0.64748
-0.663458
-0.675256
-0.683659
-0.693065
140.616
137.642
131.818
122.488
109.499
90.7869
62.9065
25.9412
0.0170248
-13.2584
-8.73751
0.113503
-0.881242
-0.839572
-0.788797
-0.844825
-0.871743
-0.893381
-0.911228
-0.922511
-0.929927
-0.933737
-0.945256
112.089
110.517
107.474
102.291
94.5221
84.7242
70.5752
48.3617
21.6538
5.14706
-2.61035
2.3721
-1.00314
-1.06905
-1.02129
-1.09205
-1.12606
-1.1491
-1.16554
-1.17377
-1.18882
-1.19871
-1.19544
84.3042
83.1223
80.5484
77.1706
73.8051
73.6301
76.7104
86.3954
60.5367
31.5516
17.3624
3.65927
-1.18035
-1.29093
-1.28629
-1.34747
-1.38028
-1.40358
-1.41727
-1.44342
-1.45636
-1.45458
-1.4209
49.6384
48.5652
46.245
43.9476
43.5456
47.6195
58.8831
88.7786
100.46
59.559
30.6587
-4.83219
-1.74126
-1.42045
-1.5668
-1.62224
-1.6534
-1.67142
-1.70255
-1.71381
-1.71249
-1.66508
-1.61381
20.4842
19.4558
17.5878
15.7733
15.7077
19.4742
29.6679
47.8982
68.841
96.5756
38.1882
3.28098
-2.06189
-1.74479
-1.88764
-1.93393
-1.9495
-1.98054
-1.98707
-1.9534
-1.89896
-1.84086
-1.78915
-11.5834
-12.3343
-13.6397
-14.9643
-15.2075
-13.0201
-7.2399
2.50591
18.7839
33.6173
59.1184
1.44754
0.804768
-2.34735
-2.2404
-2.29863
-2.30054
-2.26411
-2.18546
-2.11766
-2.06014
-2.00818
-1.95984
-20.2342
-20.4761
-20.8708
-21.232
-21.1639
-20.2057
-18.0318
-14.5574
-7.76809
-1.22957
12.7357
22.7343
1.46322
-2.62329
-2.62915
-2.70117
-2.5577
-2.44235
-2.36127
-2.2917
-2.23314
-2.17999
-2.13214
10.6058
10.51
10.3342
10.064
9.70264
9.28238
8.77146
8.17467
7.3965
6.25577
4.62098
-0.884503
-3.65161
-3.94415
-3.4703
-3.03161
-2.79375
-2.66488
-2.56831
-2.48691
-2.4168
-2.35615
-2.30402
-5.36281
-5.35068
-5.31615
-5.26195
-5.18912
-5.10067
-4.98863
-4.86694
-4.77334
-4.66566
-4.55352
-4.4964
-4.6662
-4.8561
-4.24038
-3.4929
-3.13204
-2.91704
-2.78051
-2.67736
-2.59492
-2.52641
-2.4682
-5.27146
-5.2603
-5.23104
-5.17259
-5.09308
-4.99913
-4.86673
-4.76845
-4.62364
-4.53711
-4.49467
-4.47874
-4.39507
-4.361
-4.14619
-3.74683
-3.39217
-3.13926
-2.9796
-2.86192
-2.77027
-2.6954
-2.63245
-5.16128
-5.14526
-5.10885
-5.04329
-4.95165
-4.8654
-4.76042
-4.66256
-4.59151
-4.52108
-4.43344
-4.33865
-4.21163
-4.08744
-3.98078
-3.82415
-3.54243
-3.31778
-3.15847
-3.036
-2.93912
-2.85972
-2.79313
-5.04582
-5.02764
-4.98931
-4.92667
-4.84068
-4.76926
-4.68942
-4.64372
-4.58723
-4.50093
-4.38298
-4.20825
-4.12808
-4.01974
-3.92381
-3.88043
-3.67801
-3.46639
-3.31967
-3.19755
-3.09937
-3.01764
-2.9488
-4.94102
-4.92372
-4.88984
-4.84328
-4.78894
-4.73132
-4.69978
-4.66205
-4.61822
-4.48964
-4.32739
-4.24735
-4.15909
-4.06479
-3.96903
-3.90193
-3.83419
-3.65995
-3.48023
-3.34843
-3.251
-3.16831
-3.09888
-4.90547
-4.89486
-4.87499
-4.84669
-4.81152
-4.7814
-4.74616
-4.7119
-4.61477
-4.47007
-4.38097
-4.29644
-4.21324
-4.12173
-4.03593
-3.96485
-3.91629
-3.82472
-3.6781
-3.53891
-3.41268
-3.31865
-3.24712
-4.94113
-4.93404
-4.92
-4.89931
-4.87198
-4.84731
-4.80496
-4.71916
-4.58243
-4.49381
-4.42504
-4.35225
-4.27637
-4.19204
-4.1198
-4.05439
-3.99899
-3.95591
-3.84482
-3.72402
-3.61044
-3.50549
-3.41373
-4.99841
-4.99173
-4.97774
-4.95788
-4.93002
-4.88222
-4.80461
-4.69651
-4.59325
-4.5356
-4.47809
-4.41505
-4.34911
-4.28029
-4.21351
-4.14965
-4.0978
-4.05457
-4.00058
-3.89217
-3.7879
-3.69317
-3.60498
-5.04466
-5.03624
-5.01783
-4.98825
-4.94269
-4.87572
-4.79095
-4.69415
-4.63603
-4.58904
-4.53867
-4.48414
-4.42726
-4.36977
-4.30931
-4.25223
-4.20276
-4.16062
-4.12265
-4.05321
-3.9556
-3.86579
-3.78439
-5.0606
-5.04924
-5.02546
-4.98841
-4.9364
-4.86859
-4.78944
-4.73086
-4.68964
-4.64904
-4.60498
-4.558
-4.50958
-4.46199
-4.40628
-4.35421
-4.30741
-4.26775
-4.23309
-4.19202
-4.1159
-4.03161
-3.95389
-5.06019
-5.04766
-5.02242
-4.98474
-4.93466
-4.87359
-4.82016
-4.78318
-4.74944
-4.71378
-4.67536
-4.63482
-4.59328
-4.55245
-4.50253
-4.45568
-4.41236
-4.37655
-4.34344
-4.3101
-4.26236
-4.19038
-4.1173
-5.06024
-5.04831
-5.02469
-4.98991
-4.94571
-4.90315
-4.87085
-4.84226
-4.81324
-4.78212
-4.74876
-4.71363
-4.67732
-4.6404
-4.59787
-4.55663
-4.5182
-4.48448
-4.45431
-4.42502
-4.39034
-4.33863
-4.27435
-5.06902
-5.0583
-5.03737
-5.00803
-4.97828
-4.95222
-4.92854
-4.90506
-4.8802
-4.85338
-4.82462
-4.79421
-4.76241
-4.72947
-4.69333
-4.65742
-4.62342
-4.59202
-4.56508
-4.53923
-4.511
-4.47429
-4.42343
-5.08888
-5.07986
-5.06423
-5.04559
-5.02675
-5.00849
-4.9902
-4.9709
-4.94996
-4.92717
-4.90261
-4.87646
-4.84885
-4.82024
-4.78952
-4.75843
-4.72867
-4.70087
-4.67678
-4.65368
-4.62967
-4.60152
-4.56381
-5.12183
-5.1163
-5.10681
-5.09523
-5.08273
-5.06954
-5.05534
-5.0397
-5.02237
-5.00329
-4.98255
-4.96031
-4.9367
-4.91234
-4.88654
-4.85978
-4.83396
-4.80969
-4.78757
-4.76712
-4.74746
-4.72507
-4.69643
-5.16883
-5.16572
-5.16018
-5.15296
-5.14452
-5.13492
-5.12397
-5.11147
-5.09734
-5.08159
-5.06433
-5.04568
-5.02588
-5.00558
-4.98431
-4.96151
-4.93934
-4.9183
-4.89857
-4.8817
-4.86465
-4.8464
-4.82407
-5.22685
-5.2251
-5.22181
-5.21721
-5.21142
-5.20439
-5.19599
-5.18613
-5.17478
-5.16198
-5.14783
-5.13251
-5.11627
-5.09978
-5.08271
-5.06362
-5.04489
-5.02706
-5.01043
-4.99579
-4.9815
-4.96635
-4.9486
-5.29291
-5.29188
-5.28984
-5.28681
-5.28275
-5.27757
-5.27117
-5.26348
-5.25449
-5.24427
-5.23291
-5.22061
-5.20768
-5.19472
-5.18156
-5.16604
-5.15056
-5.13576
-5.12193
-5.10929
-5.09684
-5.08513
-5.07113
-5.36471
-5.36406
-5.36273
-5.36066
-5.35776
-5.35394
-5.34909
-5.34318
-5.33619
-5.3282
-5.31932
-5.30975
-5.29984
-5.29015
-5.28069
-5.26872
-5.2564
-5.24445
-5.23318
-5.2227
-5.21299
-5.20333
-5.19233
-5.44037
-5.43994
-5.43904
-5.43759
-5.43551
-5.43271
-5.42911
-5.42467
-5.4194
-5.41335
-5.40666
-5.39954
-5.39238
-5.38578
-5.37998
-5.37173
-5.36252
-5.35327
-5.34436
-5.3359
-5.3286
-5.32113
-5.31258
-5.51763
-5.51737
-5.51679
-5.51584
-5.51443
-5.5125
-5.50999
-5.50687
-5.50316
-5.49891
-5.49426
-5.48946
-5.48497
-5.48145
-5.47938
-5.47524
-5.46916
-5.46243
-5.4557
-5.4492
-5.44391
-5.43826
-5.43193
-5.59357
-5.5935
-5.5933
-5.59291
-5.59226
-5.59132
-5.59004
-5.58841
-5.58646
-5.58424
-5.5819
-5.57971
-5.5781
-5.57774
-5.57905
-5.57899
-5.57623
-5.57201
-5.5673
-5.56283
-5.55863
-5.5543
-5.55023
-5.67671
-5.67666
-5.6766
-5.67651
-5.67641
-5.67626
-5.67608
-5.67586
-5.67563
-5.67543
-5.67534
-5.6755
-5.67612
-5.67746
-5.67957
-5.68117
-5.68114
-5.67982
-5.67769
-5.67494
-5.67263
-5.67062
-5.66985
1.18786
1.0816
1.02272
1.01785
1.15374
1.09596
1.05827
1.0192
1.03483
0.978888
0.928577
0.884813
0.836876
0.794225
0.753547
0.714751
0.636018
0.600196
0.564097
0.52911
0.424818
0.397029
0.366285
0.334934
0.214442
0.19164
0.165181
0.137329
0.00143797
-0.0174734
-0.0400161
-0.0640265
-0.22154
-0.235448
-0.25296
-0.271943
-0.456114
-0.464765
-0.475913
-0.488226
-0.698871
-0.702486
-0.706557
-0.71119
-0.944723
-0.940702
-0.936245
-0.932919
-1.17648
-1.16367
-1.15245
-1.14324
-1.38842
-1.37015
-1.35419
-1.34073
-1.57967
-1.56064
-1.54315
-1.52708
-1.75597
-1.73665
-1.71941
-1.70382
-1.92858
-1.90971
-1.89218
-1.87633
-2.10069
-2.08153
-2.06337
-2.04629
-2.27077
-2.25074
-2.23128
-2.21177
-2.43108
-2.40889
-2.38806
-2.36842
-2.5924
-2.56833
-2.54582
-2.52501
-2.7509
-2.72547
-2.70166
-2.67972
-2.90504
-2.87864
-2.85389
-2.83109
-3.0543
-3.02729
-3.00191
-2.97856
-3.20125
-3.17334
-3.14725
-3.12339
-3.35937
-3.32742
-3.29855
-3.27261
-3.54536
-3.5091
-3.47501
-3.44356
-3.72867
-3.69408
-3.66061
-3.62873
-3.90159
-3.8693
-3.83806
-3.80802
-4.0679
-4.03751
-4.00814
-3.97979
-4.22818
-4.19962
-4.17198
-4.1452
-4.38187
-4.35555
-4.32983
-4.30473
-4.52827
-4.50483
-4.48149
-4.45842
-4.66756
-4.64756
-4.62707
-4.60645
-4.8013
-4.78476
-4.76727
-4.74933
-4.93077
-4.91746
-4.90295
-4.88778
-5.0572
-5.04673
-5.03502
-5.02258
-5.18157
-5.17349
-5.16435
-5.15451
-5.30448
-5.29846
-5.29164
-5.28424
-5.42625
-5.42209
-5.41741
-5.41233
-5.54705
-5.54488
-5.54246
-5.53981
-5.66963
-5.66941
-5.66906
-5.66859
0.999169
0.894219
0.823714
0.76003
0.700501
0.646705
0.597994
0.554053
0.513802
0.475876
0.439408
0.404698
0.373038
0.345559
0.322496
0.30398
0.290084
0.280826
0.276202
0.954686
0.794358
0.704279
0.629263
0.562789
0.505025
0.453538
0.406965
0.364511
0.325561
0.289748
0.257323
0.229071
0.204788
0.18437
0.167902
0.155483
0.147179
0.143027
0.821572
0.679327
0.571262
0.482396
0.414479
0.354691
0.301668
0.254135
0.211313
0.172998
0.139313
0.110517
0.0859757
0.0647184
0.046706
0.0320869
0.0210085
0.013578
0.00985862
0.653363
0.561262
0.435345
0.336522
0.255811
0.195219
0.142198
0.0955964
0.0546889
0.0193908
-0.0101439
-0.0345948
-0.0559047
-0.0745786
-0.0905206
-0.103529
-0.113426
-0.120079
-0.123411
0.473321
0.401531
0.297946
0.192089
0.105458
0.0353663
-0.0187785
-0.0631363
-0.100158
-0.13065
-0.15578
-0.177319
-0.19631
-0.212989
-0.227249
-0.238905
-0.247785
-0.253761
-0.256753
0.284295
0.220929
0.146686
0.045521
-0.0417162
-0.111558
-0.167154
-0.211155
-0.246161
-0.274393
-0.297758
-0.317787
-0.335279
-0.350499
-0.363438
-0.373983
-0.382006
-0.387401
-0.390099
0.0919012
0.0360669
-0.0242783
-0.108379
-0.191891
-0.258462
-0.311304
-0.353627
-0.387521
-0.414901
-0.437506
-0.456646
-0.473099
-0.48722
-0.499108
-0.508739
-0.51604
-0.52094
-0.523385
-0.103467
-0.152369
-0.204109
-0.27292
-0.346696
-0.408172
-0.457001
-0.496349
-0.528349
-0.55455
-0.576277
-0.594572
-0.610126
-0.623323
-0.634329
-0.643185
-0.649868
-0.65434
-0.656567
-0.303462
-0.344406
-0.388991
-0.445915
-0.506884
-0.560506
-0.604391
-0.64022
-0.669743
-0.694246
-0.71474
-0.73202
-0.746648
-0.758974
-0.769184
-0.777351
-0.783489
-0.787584
-0.78962
-0.509312
-0.540627
-0.578072
-0.622985
-0.670681
-0.714949
-0.752995
-0.784914
-0.811653
-0.834139
-0.853129
-0.869218
-0.882843
-0.894295
-0.903743
-0.911273
-0.916914
-0.920668
-0.922532
-0.720443
-0.740097
-0.76673
-0.799462
-0.835323
-0.870481
-0.902356
-0.930097
-0.953868
-0.974159
-0.991478
-1.00625
-1.0188
-1.02936
-1.03806
-1.04498
-1.05015
-1.05359
-1.0553
-0.930052
-0.935937
-0.950858
-0.972827
-0.998954
-1.02615
-1.05211
-1.07559
-1.09626
-1.11423
-1.12977
-1.14314
-1.15457
-1.16421
-1.17216
-1.17849
-1.18322
-1.18636
-1.18792
-1.13089
-1.12503
-1.12983
-1.14282
-1.161
-1.18147
-1.20201
-1.2213
-1.23877
-1.25431
-1.26798
-1.27989
-1.29016
-1.29887
-1.30608
-1.31182
-1.31612
-1.31898
-1.3204
-1.32169
-1.30752
-1.3044
-1.30999
-1.32155
-1.3363
-1.35196
-1.36718
-1.3814
-1.39441
-1.40612
-1.41651
-1.42558
-1.43335
-1.43981
-1.44498
-1.44886
-1.45145
-1.45274
-1.50426
-1.48468
-1.47534
-1.47481
-1.48079
-1.49065
-1.50191
-1.51318
-1.5241
-1.5345
-1.54419
-1.55301
-1.56086
-1.56768
-1.57341
-1.57801
-1.58148
-1.58381
-1.58498
-1.68044
-1.6577
-1.64307
-1.63743
-1.63867
-1.64438
-1.65162
-1.659
-1.66674
-1.67461
-1.68228
-1.68951
-1.69613
-1.70199
-1.70697
-1.71101
-1.71408
-1.71615
-1.7172
-1.85185
-1.82536
-1.80771
-1.7978
-1.79456
-1.79571
-1.7993
-1.80398
-1.80936
-1.81513
-1.82098
-1.82667
-1.83201
-1.83682
-1.84099
-1.84441
-1.84703
-1.84881
-1.84972
-2.01977
-1.98936
-1.96754
-1.95408
-1.94731
-1.94529
-1.94618
-1.94841
-1.95172
-1.95568
-1.95995
-1.96429
-1.96847
-1.97233
-1.97573
-1.97856
-1.98075
-1.98224
-1.983
-2.18087
-2.14778
-2.1241
-2.10801
-2.0981
-2.09293
-2.09183
-2.09188
-2.09347
-2.09591
-2.09886
-2.10206
-2.10529
-2.10834
-2.11108
-2.1134
-2.11521
-2.11645
-2.11708
-2.33768
-2.30376
-2.27834
-2.26009
-2.24776
-2.24003
-2.23605
-2.23436
-2.23456
-2.23571
-2.23757
-2.23989
-2.24233
-2.24472
-2.24693
-2.24885
-2.25036
-2.25139
-2.25192
-2.49296
-2.45767
-2.4304
-2.41028
-2.3958
-2.38589
-2.37989
-2.37658
-2.37514
-2.37517
-2.37621
-2.37777
-2.37957
-2.38146
-2.38327
-2.38488
-2.38614
-2.38702
-2.38747
-2.64612
-2.60911
-2.58042
-2.55844
-2.54229
-2.53055
-2.52307
-2.51825
-2.5156
-2.5147
-2.51492
-2.51592
-2.51715
-2.51869
-2.52018
-2.52154
-2.52262
-2.52337
-2.52376
-2.79623
-2.75793
-2.72801
-2.70473
-2.68715
-2.6744
-2.66544
-2.65958
-2.65601
-2.65439
-2.65389
-2.65434
-2.65527
-2.65663
-2.6578
-2.65897
-2.65993
-2.66059
-2.66092
-2.94296
-2.90402
-2.87336
-2.84931
-2.83086
-2.8174
-2.80737
-2.80076
-2.79662
-2.79432
-2.79333
-2.79346
-2.79416
-2.79517
-2.79622
-2.79738
-2.7983
-2.79888
-2.79919
-3.08734
-3.04824
-3.01732
-2.99292
-2.97406
-2.95988
-2.94951
-2.94227
-2.93768
-2.9349
-2.93363
-2.93341
-2.93392
-2.93483
-2.93573
-2.93688
-2.93776
-2.93841
-2.93876
-3.23438
-3.19386
-3.16219
-3.13726
-3.11788
-3.1031
-3.09246
-3.08478
-3.07971
-3.07664
-3.07518
-3.07458
-3.07498
-3.07577
-3.07673
-3.07776
-3.07866
-3.07933
-3.07972
-3.39643
-3.34858
-3.31298
-3.28564
-3.2647
-3.24892
-3.23741
-3.22919
-3.22359
-3.22018
-3.21832
-3.21766
-3.21779
-3.21848
-3.21942
-3.22039
-3.22128
-3.22194
-3.22234
-3.57835
-3.52164
-3.4771
-3.44332
-3.41827
-3.39987
-3.38641
-3.37692
-3.37043
-3.3663
-3.36392
-3.36305
-3.3629
-3.36336
-3.36423
-3.36512
-3.36595
-3.36657
-3.36694
-3.75978
-3.70183
-3.65316
-3.61358
-3.58255
-3.55905
-3.54191
-3.52988
-3.52161
-3.51618
-3.51297
-3.51138
-3.51082
-3.51095
-3.51161
-3.51234
-3.51305
-3.5136
-3.51392
-3.93413
-3.87835
-3.82999
-3.78862
-3.7543
-3.72681
-3.7056
-3.68984
-3.67864
-3.6711
-3.66636
-3.66357
-3.66223
-3.66183
-3.66201
-3.66247
-3.66298
-3.66341
-3.66366
-4.10198
-4.04895
-4.00265
-3.9621
-3.92723
-3.89807
-3.87445
-3.85594
-3.84198
-3.83188
-3.82492
-3.82043
-3.81784
-3.81653
-3.81599
-3.81597
-3.81616
-3.8164
-3.81656
-4.26402
-4.21392
-4.17027
-4.13179
-4.09807
-4.06906
-4.04473
-4.0249
-4.00922
-3.99724
-3.98842
-3.98224
-3.97812
-3.97551
-3.97401
-3.97327
-3.97299
-3.97294
-3.97296
-4.42071
-4.37388
-4.33317
-4.29733
-4.2657
-4.23804
-4.21429
-4.19436
-4.17805
-4.16509
-4.15509
-4.14769
-4.14241
-4.1387
-4.13618
-4.13462
-4.13373
-4.1333
-4.13314
-4.57234
-4.52931
-4.49186
-4.45901
-4.42999
-4.40442
-4.38214
-4.36305
-4.34705
-4.33393
-4.32343
-4.31528
-4.30926
-4.30489
-4.30168
-4.29951
-4.29813
-4.29735
-4.29702
-4.71928
-4.68062
-4.6468
-4.61724
-4.59119
-4.56819
-4.54797
-4.53042
-4.51542
-4.50286
-4.49253
-4.48421
-4.47779
-4.47305
-4.46955
-4.46703
-4.46535
-4.46434
-4.4639
-4.86206
-4.82825
-4.79844
-4.77245
-4.74965
-4.72954
-4.71181
-4.69628
-4.68285
-4.6714
-4.66181
-4.65392
-4.64757
-4.64271
-4.6391
-4.63645
-4.63464
-4.63353
-4.63302
-5.00125
-4.97264
-4.94719
-4.92505
-4.90574
-4.88878
-4.87384
-4.8607
-4.84923
-4.83932
-4.83088
-4.82381
-4.81801
-4.81338
-4.80984
-4.80721
-4.80537
-4.80424
-4.8037
-5.13748
-5.11426
-5.09347
-5.07544
-5.05985
-5.04626
-5.03434
-5.02384
-5.0146
-5.00653
-4.99954
-4.99356
-4.98855
-4.98445
-4.9812
-4.97872
-4.97693
-4.9758
-4.97526
-5.27136
-5.25363
-5.23774
-5.22408
-5.21241
-5.20237
-5.19362
-5.1859
-5.17906
-5.17298
-5.1676
-5.16289
-5.15882
-5.15539
-5.15258
-5.15035
-5.14869
-5.14756
-5.147
-5.40351
-5.39141
-5.38067
-5.37161
-5.36403
-5.35759
-5.352
-5.34703
-5.34253
-5.3384
-5.33462
-5.33117
-5.32808
-5.32537
-5.32307
-5.3212
-5.31973
-5.31871
-5.31817
-5.5352
-5.52895
-5.5235
-5.51898
-5.51525
-5.51207
-5.50922
-5.50656
-5.504
-5.5015
-5.49908
-5.49676
-5.4946
-5.49263
-5.49091
-5.48948
-5.48834
-5.48754
-5.48712
-5.66768
-5.66634
-5.66509
-5.66399
-5.66298
-5.66201
-5.66103
-5.66
-5.65893
-5.65782
-5.65671
-5.65561
-5.65458
-5.65362
-5.65279
-5.65208
-5.65153
-5.65115
-5.65094
)
;

boundaryField
{
    leftWall
    {
        type            calculated;
        value           nonuniform List<scalar> 
50
(
1626.32
1567.71
1509.33
1451.21
1393.34
1335.71
1278.36
1221.22
1132.49
1015.42
898.559
786.669
683.714
587.738
497.443
412.519
333.344
260.181
192.884
140.616
112.089
84.3042
49.6384
20.4842
-11.5834
-20.2342
10.6058
-5.36281
-5.27146
-5.16128
-5.04582
-4.94102
-4.90547
-4.94113
-4.99841
-5.04466
-5.0606
-5.06019
-5.06024
-5.06902
-5.08888
-5.12183
-5.16883
-5.22685
-5.29291
-5.36471
-5.44037
-5.51763
-5.59357
-5.67671
)
;
    }
    rightWall
    {
        type            calculated;
        value           nonuniform List<scalar> 
50
(
0.803864
0.744151
0.683779
0.622842
0.561354
0.499348
0.436922
0.374253
0.276202
0.143027
0.00985862
-0.123411
-0.256753
-0.390099
-0.523385
-0.656567
-0.78962
-0.922532
-1.0553
-1.18792
-1.3204
-1.45274
-1.58498
-1.7172
-1.84972
-1.983
-2.11708
-2.25192
-2.38747
-2.52376
-2.66092
-2.79919
-2.93876
-3.07972
-3.22234
-3.36694
-3.51392
-3.66366
-3.81656
-3.97296
-4.13314
-4.29702
-4.4639
-4.63302
-4.8037
-4.97526
-5.147
-5.31817
-5.48712
-5.65094
)
;
    }
    lowerWall
    {
        type            calculated;
        value           nonuniform List<scalar> 
62
(
1655.75
1638.25
1603.12
1550.19
1479.24
1390.13
1282.99
1158.51
1020.4
874.91
718.091
664.945
470.212
243.522
74.6128
10.1044
3.45049
3.15858
3.07341
2.85572
2.77042
2.76346
2.75264
2.72321
2.64672
2.55194
2.43952
2.30424
2.14119
1.95906
1.8039
1.25045
1.1442
1.08532
1.08045
1.31118
1.25551
1.20303
1.15299
1.10515
1.05918
1.01795
1.0023
1.34061
1.33211
1.31048
1.27564
1.2368
1.19835
1.16162
1.12785
1.09607
1.06436
1.03147
0.996778
0.960784
0.925495
0.894567
0.869772
0.851404
0.839306
0.833293
)
;
    }
    atmosphere
    {
        type            calculated;
        value           nonuniform List<scalar> 
46
(
-5.73552
-5.73549
-5.73529
-5.73501
-5.73467
-5.73427
-5.73384
-5.73338
-5.73292
-5.73247
-5.73203
-5.73162
-5.73125
-5.73091
-5.73061
-5.7303
-5.72998
-5.72966
-5.72939
-5.7292
-5.72908
-5.72904
-5.72904
-5.72904
-5.72904
-5.72904
-5.72904
-5.72904
-5.72904
-5.72904
-5.72904
-5.72904
-5.72904
-5.72904
-5.72904
-5.72904
-5.72904
-5.72904
-5.72904
-5.72904
-5.72904
-5.72904
-5.72904
-5.72904
-5.72904
-5.72904
)
;
    }
    defaultFaces
    {
        type            empty;
    }
}


// ************************************************************************* //
