/*--------------------------------*- C++ -*----------------------------------*\
| =========                 |                                                 |
| \\      /  F ield         | foam-extend: Open Source CFD                    |
|  \\    /   O peration     | Version:     4.1                                |
|   \\  /    A nd           | Web:         http://www.foam-extend.org         |
|    \\/     M anipulation  |                                                 |
\*---------------------------------------------------------------------------*/
FoamFile
{
    version     2.0;
    format      ascii;
    class       surfaceScalarField;
    location    "0.05";
    object      phi;
}
// * * * * * * * * * * * * * * * * * * * * * * * * * * * * * * * * * * * * * //

dimensions      [0 3 -1 0 0 0 0];

internalField   nonuniform List<scalar> 
4432
(
3.1954e-06
-3.1954e-06
6.43683e-06
-3.24142e-06
9.76782e-06
-3.33099e-06
1.32326e-05
-3.4648e-06
1.68725e-05
-3.63983e-06
2.07167e-05
-3.8443e-06
2.47636e-05
-4.04692e-06
2.8911e-05
-4.1474e-06
3.32559e-05
-4.34494e-06
3.74435e-05
-4.18758e-06
6.06553e-05
-2.32117e-05
7.96751e-05
-1.90199e-05
9.39808e-05
-1.43056e-05
0.000111359
-1.73781e-05
0.000128157
-1.67984e-05
0.000130918
-2.76194e-06
0.000103533
2.73859e-05
7.53134e-05
2.82206e-05
4.93418e-05
2.59725e-05
3.21814e-05
1.71573e-05
2.06151e-05
1.15676e-05
1.01205e-05
1.04954e-05
1.01198e-05
3.1968e-06
-6.39219e-06
6.43953e-06
-6.48416e-06
9.77171e-06
-6.66318e-06
1.32378e-05
-6.93086e-06
1.68797e-05
-7.28177e-06
2.07308e-05
-7.69553e-06
2.47809e-05
-8.09707e-06
2.89744e-05
-8.34094e-06
3.31445e-05
-8.51499e-06
4.02306e-05
-1.12736e-05
5.93756e-05
-4.23566e-05
7.56444e-05
-3.52888e-05
9.22322e-05
-3.08935e-05
0.00011118
-3.63257e-05
0.000129053
-3.46718e-05
0.000120024
6.26667e-06
0.000100219
4.71918e-05
7.00202e-05
5.84164e-05
4.88918e-05
4.71045e-05
3.55115e-05
3.05372e-05
2.29079e-05
2.41703e-05
1.04137e-05
2.2989e-05
2.05331e-05
3.19129e-06
-9.58348e-06
6.42821e-06
-9.72108e-06
9.75408e-06
-9.98905e-06
1.32134e-05
-1.03902e-05
1.68495e-05
-1.0918e-05
2.07007e-05
-1.15467e-05
2.47829e-05
-1.21794e-05
2.90811e-05
-1.2639e-05
3.23552e-05
-1.17891e-05
5.61666e-05
-3.5085e-05
6.21393e-05
-4.83291e-05
7.39864e-05
-4.71359e-05
8.80631e-05
-4.49702e-05
0.000106041
-5.43039e-05
0.0001234
-5.20309e-05
0.000106015
2.36514e-05
7.89423e-05
7.42678e-05
5.86899e-05
7.86663e-05
4.6068e-05
5.97281e-05
3.76415e-05
3.89634e-05
2.52592e-05
3.65517e-05
1.05054e-05
3.77422e-05
3.10384e-05
3.18305e-06
-1.27665e-05
6.41132e-06
-1.29493e-05
9.72779e-06
-1.33055e-05
1.31769e-05
-1.38393e-05
1.6804e-05
-1.45451e-05
2.06471e-05
-1.53898e-05
2.47704e-05
-1.63027e-05
2.90698e-05
-1.69385e-05
4.61668e-05
-2.88861e-05
5.47047e-05
-4.36228e-05
6.11006e-05
-5.4725e-05
6.9531e-05
-5.55663e-05
8.19855e-05
-5.74248e-05
9.65023e-05
-6.88208e-05
0.000106633
-6.21612e-05
8.77898e-05
4.24935e-05
6.49332e-05
9.71276e-05
5.42729e-05
8.93249e-05
4.88113e-05
6.51903e-05
3.93633e-05
4.84112e-05
2.72089e-05
4.87053e-05
1.16744e-05
5.32763e-05
4.27127e-05
3.17193e-06
-1.59385e-05
6.38853e-06
-1.61659e-05
9.69232e-06
-1.66093e-05
1.31274e-05
-1.72744e-05
1.67394e-05
-1.81572e-05
2.06041e-05
-1.92545e-05
2.46878e-05
-2.03865e-05
3.05065e-05
-2.27572e-05
4.56016e-05
-4.39812e-05
5.31025e-05
-5.11237e-05
5.93076e-05
-6.09301e-05
6.56081e-05
-6.18668e-05
7.59063e-05
-6.7723e-05
8.60081e-05
-7.89227e-05
9.01905e-05
-6.63434e-05
7.07549e-05
6.19279e-05
6.30676e-05
0.000104817
5.53847e-05
9.7007e-05
5.03535e-05
7.02216e-05
4.0486e-05
5.82786e-05
2.87943e-05
6.03966e-05
1.45571e-05
6.7513e-05
5.72699e-05
3.15767e-06
-1.90961e-05
6.35933e-06
-1.93676e-05
9.64704e-06
-1.9897e-05
1.30636e-05
-2.0691e-05
1.66561e-05
-2.17497e-05
2.05034e-05
-2.31019e-05
2.4867e-05
-2.47501e-05
3.80449e-05
-3.5935e-05
4.4536e-05
-5.04722e-05
5.10294e-05
-5.76172e-05
5.73181e-05
-6.72188e-05
6.18109e-05
-6.63596e-05
6.91857e-05
-7.50978e-05
7.57202e-05
-8.54571e-05
7.66746e-05
-6.72977e-05
6.08206e-05
7.77805e-05
5.85891e-05
0.000107049
5.43235e-05
0.000101272
4.91843e-05
7.53606e-05
4.10979e-05
6.6365e-05
3.04465e-05
7.10476e-05
1.88518e-05
7.91076e-05
7.6122e-05
3.14007e-06
-2.22362e-05
6.32338e-06
-2.25509e-05
9.59196e-06
-2.31656e-05
1.29867e-05
-2.40858e-05
1.65649e-05
-2.53279e-05
2.04492e-05
-2.69863e-05
2.67301e-05
-3.1031e-05
3.74641e-05
-4.66691e-05
4.29328e-05
-5.59408e-05
4.86556e-05
-6.33401e-05
5.43117e-05
-7.28749e-05
5.78848e-05
-6.99327e-05
6.20894e-05
-7.93024e-05
6.62883e-05
-8.96559e-05
6.39685e-05
-6.49777e-05
5.4063e-05
8.76854e-05
5.03884e-05
0.000110725
4.85726e-05
0.000103087
4.48939e-05
7.9039e-05
4.09543e-05
7.03048e-05
3.24696e-05
7.95322e-05
2.49142e-05
8.66631e-05
0.000101036
3.09078e-06
-2.5327e-05
6.22283e-06
-2.56829e-05
9.43833e-06
-2.63811e-05
1.27784e-05
-2.74258e-05
1.62799e-05
-2.88295e-05
2.03269e-05
-3.10333e-05
3.10283e-05
-4.17325e-05
3.74871e-05
-5.31278e-05
4.24661e-05
-6.09197e-05
4.77252e-05
-6.85993e-05
5.24223e-05
-7.75719e-05
5.5928e-05
-7.34384e-05
5.65157e-05
-7.98902e-05
5.77898e-05
-9.093e-05
5.22875e-05
-5.94753e-05
4.36223e-05
9.63503e-05
4.19019e-05
0.000112446
4.13914e-05
0.000103597
3.48802e-05
8.55498e-05
2.81368e-05
7.70482e-05
3.06629e-05
7.70062e-05
2.55648e-05
9.17613e-05
0.000126601
3.37689e-06
-3.37689e-06
6.86267e-06
-3.48576e-06
9.76864e-06
-2.90631e-06
1.11657e-05
-1.39706e-06
1.14549e-05
-2.89493e-07
1.12353e-05
2.19517e-07
1.08075e-05
4.27659e-07
1.01894e-05
6.18019e-07
9.36836e-06
8.20959e-07
8.40782e-06
9.60452e-07
7.36954e-06
1.03819e-06
6.29927e-06
1.07018e-06
5.23265e-06
1.06654e-06
4.21905e-06
1.01352e-06
3.28033e-06
9.3863e-07
2.40574e-06
8.74499e-07
1.5779e-06
8.27752e-07
7.80232e-07
7.97579e-07
7.80148e-07
3.49726e-06
-6.87452e-06
7.43625e-06
-7.42473e-06
1.02551e-05
-5.72566e-06
1.15973e-05
-2.7394e-06
1.18877e-05
-5.80187e-07
1.16911e-05
4.15945e-07
1.11678e-05
9.50774e-07
1.04291e-05
1.35653e-06
9.54183e-06
1.70803e-06
8.54014e-06
1.96198e-06
7.46912e-06
2.10905e-06
6.37191e-06
2.16724e-06
5.28529e-06
2.15299e-06
4.26397e-06
2.03468e-06
3.31817e-06
1.88427e-06
2.43507e-06
1.75744e-06
1.59777e-06
1.66489e-06
7.90098e-07
1.60509e-06
1.57018e-06
3.59473e-06
-1.04696e-05
8.28638e-06
-1.21163e-05
1.08248e-05
-8.26453e-06
1.19921e-05
-3.90683e-06
1.21251e-05
-7.13336e-07
1.18355e-05
7.05286e-07
1.12351e-05
1.55105e-06
1.04277e-05
2.1638e-06
9.48795e-06
2.64759e-06
8.45842e-06
2.99136e-06
7.37562e-06
3.19171e-06
6.27646e-06
3.26625e-06
5.20348e-06
3.22583e-06
4.20677e-06
3.03125e-06
3.27988e-06
2.81101e-06
2.4101e-06
2.62707e-06
1.58269e-06
2.49216e-06
7.82992e-07
2.40464e-06
2.3531e-06
4.09084e-06
-1.45607e-05
9.34605e-06
-1.73714e-05
1.16384e-05
-1.05573e-05
1.25558e-05
-4.82431e-06
1.24754e-05
-6.33121e-07
1.20282e-05
1.15224e-06
1.12927e-05
2.28642e-06
1.03829e-05
3.07347e-06
9.37756e-06
3.65278e-06
8.31451e-06
4.05427e-06
7.21914e-06
4.28694e-06
6.11798e-06
4.36728e-06
5.08373e-06
4.25995e-06
4.12413e-06
3.99072e-06
3.22413e-06
3.71087e-06
2.3735e-06
3.47756e-06
1.56047e-06
3.30506e-06
7.72503e-07
3.19247e-06
3.12554e-06
5.20362e-06
-1.97646e-05
1.06444e-05
-2.28121e-05
1.26828e-05
-1.25959e-05
1.32701e-05
-5.41172e-06
1.2923e-05
-2.86211e-07
1.22237e-05
1.85135e-06
1.12889e-05
3.22106e-06
1.02549e-05
4.10727e-06
9.18043e-06
4.72713e-06
8.08603e-06
5.14854e-06
6.98361e-06
5.38923e-06
5.90767e-06
5.44308e-06
4.93618e-06
5.23131e-06
4.02225e-06
4.90452e-06
3.15441e-06
4.57858e-06
2.32723e-06
4.30462e-06
1.5322e-06
4.09996e-06
7.59103e-07
3.96543e-06
3.88458e-06
6.9761e-06
-2.6741e-05
1.24476e-05
-2.82835e-05
1.39814e-05
-1.413e-05
1.41005e-05
-5.53087e-06
1.33686e-05
4.45458e-07
1.22818e-05
2.93801e-06
1.11126e-05
4.39006e-06
9.96534e-06
5.2544e-06
8.83898e-06
5.85335e-06
7.73106e-06
6.25633e-06
6.63971e-06
6.48044e-06
5.67067e-06
6.41199e-06
4.77186e-06
6.13e-06
3.90616e-06
5.77008e-06
3.07344e-06
5.41117e-06
2.2728e-06
5.10512e-06
1.4987e-06
4.87394e-06
7.43135e-07
4.72086e-06
4.62765e-06
1.07596e-05
-3.75007e-05
1.5087e-05
-3.26109e-05
1.55063e-05
-1.45495e-05
1.47965e-05
-4.82116e-06
1.31819e-05
2.05989e-06
1.17451e-05
4.37462e-06
1.05027e-05
5.63235e-06
9.34787e-06
6.40904e-06
8.23875e-06
6.96234e-06
7.18264e-06
7.3123e-06
6.26888e-06
7.39407e-06
5.42848e-06
7.25227e-06
4.5988e-06
6.95955e-06
3.77993e-06
6.58883e-06
2.9837e-06
6.20729e-06
2.21174e-06
5.87695e-06
1.46081e-06
5.62474e-06
7.25005e-07
5.45654e-06
5.3526e-06
2.11169e-05
-5.86178e-05
1.93221e-05
-3.08162e-05
1.46573e-05
-9.8848e-06
1.01178e-05
-2.81861e-07
9.40397e-06
2.77362e-06
9.14097e-06
4.63747e-06
8.73738e-06
6.03581e-06
8.09897e-06
7.04733e-06
7.37673e-06
7.68446e-06
6.66556e-06
8.02335e-06
5.94966e-06
8.10986e-06
5.20506e-06
7.99676e-06
4.43004e-06
7.73446e-06
3.65392e-06
7.36484e-06
2.893e-06
6.9681e-06
2.14952e-06
6.62032e-06
1.42202e-06
6.35213e-06
7.06412e-07
6.17204e-06
6.05896e-06
6.54143e-06
-3.18684e-05
1.31783e-05
-3.23198e-05
2.00314e-05
-3.32343e-05
2.73704e-05
-3.47647e-05
3.68003e-05
-3.82595e-05
5.21668e-05
-4.63998e-05
6.52015e-05
-5.47673e-05
7.41028e-05
-6.20291e-05
8.24678e-05
-6.92846e-05
9.08229e-05
-7.69546e-05
9.71146e-05
-8.38635e-05
0.000101331
-7.76549e-05
0.000109499
-8.80577e-05
0.000113762
-9.51931e-05
8.89481e-05
-3.46616e-05
7.68425e-05
0.000108456
7.4773e-05
0.000114516
7.28546e-05
0.000105516
6.25165e-05
9.58876e-05
5.44406e-05
8.51241e-05
5.22148e-05
7.92323e-05
6.24786e-05
8.14976e-05
6.34125e-05
0.000125668
6.62334e-06
-3.84917e-05
1.34643e-05
-3.91607e-05
2.11305e-05
-4.09004e-05
3.08521e-05
-4.44864e-05
4.25347e-05
-4.99421e-05
5.21013e-05
-5.59664e-05
5.96283e-05
-6.22943e-05
6.63379e-05
-6.87387e-05
7.26064e-05
-7.55531e-05
7.83097e-05
-8.26579e-05
8.18163e-05
-8.73702e-05
8.51578e-05
-8.09964e-05
8.6666e-05
-8.95659e-05
8.69203e-05
-9.54474e-05
5.71534e-05
-4.89393e-06
5.76306e-05
0.000107978
5.90972e-05
0.00011305
5.68803e-05
0.000107733
5.43072e-05
9.84604e-05
5.20368e-05
8.73944e-05
5.53472e-05
7.5922e-05
8.56139e-05
5.12307e-05
4.2371e-05
0.000106655
7.52309e-06
-4.60148e-05
1.55998e-05
-4.72374e-05
2.43341e-05
-4.96347e-05
3.30482e-05
-5.32005e-05
4.08572e-05
-5.77512e-05
4.77603e-05
-6.28695e-05
5.38389e-05
-6.8373e-05
5.93044e-05
-7.42042e-05
6.41069e-05
-8.03555e-05
6.78975e-05
-8.64485e-05
6.96057e-05
-8.90784e-05
7.1897e-05
-8.32877e-05
7.31536e-05
-9.08225e-05
7.21087e-05
-9.44025e-05
4.18862e-05
2.53293e-05
4.47676e-05
0.000105097
4.83929e-05
0.000109424
4.86287e-05
0.000107497
4.82848e-05
9.88042e-05
4.85905e-05
8.70886e-05
6.94967e-05
5.5016e-05
7.7942e-05
4.27857e-05
3.68559e-05
8.34571e-05
7.90114e-06
-5.3916e-05
1.57369e-05
-5.50732e-05
2.33722e-05
-5.727e-05
3.05673e-05
-6.03956e-05
3.7082e-05
-6.4266e-05
4.28928e-05
-6.86803e-05
4.8017e-05
-7.34972e-05
5.24369e-05
-7.86241e-05
5.5982e-05
-8.39007e-05
5.82672e-05
-8.87337e-05
5.89007e-05
-8.9712e-05
6.05949e-05
-8.49819e-05
6.19284e-05
-9.2156e-05
5.96395e-05
-9.21136e-05
3.44003e-05
5.05688e-05
3.80947e-05
0.000101402
4.37512e-05
0.000103768
4.98748e-05
0.000101373
5.47717e-05
9.39071e-05
6.60297e-05
7.58306e-05
7.29155e-05
4.81303e-05
7.30775e-05
4.26239e-05
3.70202e-05
7.29134e-05
7.28047e-06
-6.11964e-05
1.43937e-05
-6.21864e-05
2.11716e-05
-6.40479e-05
2.74578e-05
-6.66818e-05
3.31324e-05
-6.99406e-05
3.81323e-05
-7.36803e-05
4.24106e-05
-7.77755e-05
4.58776e-05
-8.20912e-05
4.83414e-05
-8.63644e-05
4.9513e-05
-8.99053e-05
4.96196e-05
-8.98186e-05
5.0915e-05
-8.62773e-05
5.19047e-05
-9.31457e-05
4.89649e-05
-8.91739e-05
3.04326e-05
6.91012e-05
3.40936e-05
9.77408e-05
4.03433e-05
9.75179e-05
4.85002e-05
9.32163e-05
5.77095e-05
8.46975e-05
6.76315e-05
6.59085e-05
6.58774e-05
4.98841e-05
6.45301e-05
4.39711e-05
3.88728e-05
6.26774e-05
6.51424e-06
-6.77107e-05
1.28598e-05
-6.8532e-05
1.88756e-05
-7.00637e-05
2.44213e-05
-7.22275e-05
2.93801e-05
-7.48993e-05
3.36545e-05
-7.79547e-05
3.715e-05
-8.1271e-05
3.97515e-05
-8.46927e-05
4.13126e-05
-8.79255e-05
4.1729e-05
-9.03217e-05
4.16348e-05
-8.97244e-05
4.266e-05
-8.73025e-05
4.34427e-05
-9.39284e-05
3.84067e-05
-8.41379e-05
2.74614e-05
8.00465e-05
3.01668e-05
9.50351e-05
3.62296e-05
9.14551e-05
4.4506e-05
8.49398e-05
5.43082e-05
7.48952e-05
5.95871e-05
6.06294e-05
5.80943e-05
5.13769e-05
5.6378e-05
4.56873e-05
4.14706e-05
5.37803e-05
5.76977e-06
-7.34804e-05
1.1392e-05
-7.41543e-05
1.67205e-05
-7.53922e-05
2.16164e-05
-7.71234e-05
2.5944e-05
-7.92269e-05
2.95671e-05
-8.15778e-05
3.2353e-05
-8.4057e-05
3.41878e-05
-8.65276e-05
3.50127e-05
-8.87504e-05
3.49247e-05
-9.02337e-05
3.47279e-05
-8.95276e-05
3.55242e-05
-8.80988e-05
3.60007e-05
-9.44049e-05
2.86604e-05
-7.67978e-05
2.25934e-05
8.61135e-05
2.53434e-05
9.2285e-05
3.20964e-05
8.47022e-05
4.11567e-05
7.58795e-05
4.90395e-05
6.70125e-05
5.10987e-05
5.85703e-05
5.03211e-05
5.21546e-05
4.86204e-05
4.73881e-05
4.4444e-05
4.56471e-05
5.0725e-06
-7.85529e-05
1.00276e-05
-7.91094e-05
1.47411e-05
-8.01057e-05
1.90773e-05
-8.14596e-05
2.28787e-05
-8.30283e-05
2.59622e-05
-8.46613e-05
2.81451e-05
-8.62399e-05
2.93123e-05
-8.76948e-05
2.9508e-05
-8.89461e-05
2.90169e-05
-8.97426e-05
2.86975e-05
-8.92082e-05
2.93064e-05
-8.87077e-05
2.95552e-05
-9.46536e-05
1.9983e-05
-6.72257e-05
1.65931e-05
8.95035e-05
2.08563e-05
8.80218e-05
2.96961e-05
7.58623e-05
3.7202e-05
6.83737e-05
4.16905e-05
6.25242e-05
4.31206e-05
5.71404e-05
4.28074e-05
5.24679e-05
4.13772e-05
4.88185e-05
4.6837e-05
3.89842e-05
4.40502e-06
-8.2958e-05
8.73164e-06
-8.3436e-05
1.28906e-05
-8.42646e-05
1.67647e-05
-8.53337e-05
2.0186e-05
-8.64496e-05
2.29111e-05
-8.73864e-05
2.46572e-05
-8.7986e-05
2.5248e-05
-8.82856e-05
2.48183e-05
-8.85163e-05
2.38855e-05
-8.88098e-05
2.33796e-05
-8.87023e-05
2.38706e-05
-8.91987e-05
2.3995e-05
-9.4778e-05
1.2673e-05
-5.59037e-05
1.1132e-05
9.10447e-05
1.90702e-05
8.00837e-05
2.69912e-05
6.79416e-05
3.19267e-05
6.34384e-05
3.4791e-05
5.96601e-05
3.60003e-05
5.59313e-05
3.59821e-05
5.24863e-05
3.49778e-05
4.98229e-05
4.85973e-05
3.32174e-05
3.73052e-06
-8.66885e-05
7.42608e-06
-8.71316e-05
1.10492e-05
-8.78878e-05
1.45311e-05
-8.88156e-05
1.7744e-05
-8.96625e-05
2.03891e-05
-9.00315e-05
2.19838e-05
-8.95807e-05
2.21299e-05
-8.84317e-05
2.09879e-05
-8.73744e-05
1.94517e-05
-8.72735e-05
1.87156e-05
-8.79663e-05
1.91907e-05
-8.96737e-05
1.88355e-05
-9.44228e-05
7.68467e-06
-4.47528e-05
8.52791e-06
9.02019e-05
1.87213e-05
6.98907e-05
2.38985e-05
6.27648e-05
2.71151e-05
6.02222e-05
2.90642e-05
5.77113e-05
3.00085e-05
5.49874e-05
3.01115e-05
5.23835e-05
2.93964e-05
5.05382e-05
5.03795e-05
2.76143e-05
3.00864e-06
-8.96971e-05
6.00868e-06
-9.01316e-05
9.03908e-06
-9.09182e-05
1.20947e-05
-9.18713e-05
1.521e-05
-9.27778e-05
1.8104e-05
-9.29255e-05
2.00011e-05
-9.14778e-05
1.99585e-05
-8.83891e-05
1.82453e-05
-8.56612e-05
1.59378e-05
-8.49661e-05
1.48861e-05
-8.69146e-05
1.53427e-05
-9.01303e-05
1.48397e-05
-9.39197e-05
3.66323e-06
-3.35763e-05
8.55353e-06
8.53119e-05
1.75874e-05
6.08574e-05
2.12647e-05
5.9088e-05
2.33129e-05
5.81744e-05
2.44904e-05
5.65342e-05
2.51042e-05
5.4374e-05
2.50291e-05
5.2459e-05
2.41817e-05
5.13858e-05
5.33665e-05
2.11949e-05
2.1503e-06
-9.18474e-05
4.26012e-06
-9.22414e-05
6.54226e-06
-9.32003e-05
9.05013e-06
-9.43791e-05
1.20066e-05
-9.57343e-05
1.52496e-05
-9.61684e-05
1.78845e-05
-9.41127e-05
1.80324e-05
-8.8537e-05
1.69876e-05
-8.46163e-05
1.44202e-05
-8.23987e-05
1.20276e-05
-8.45221e-05
1.23265e-05
-9.04292e-05
1.11325e-05
-9.27257e-05
3.68442e-06
-2.6128e-05
1.25268e-05
7.64697e-05
1.79624e-05
5.54222e-05
1.99674e-05
5.70834e-05
2.06838e-05
5.74584e-05
2.08565e-05
5.63617e-05
2.09555e-05
5.42753e-05
1.92217e-05
5.41931e-05
1.52066e-05
5.54012e-05
5.65839e-05
1.19894e-05
1.51983e-06
-9.33673e-05
2.97339e-06
-9.3695e-05
4.58848e-06
-9.48154e-05
6.48034e-06
-9.6271e-05
8.80181e-06
-9.80558e-05
1.16734e-05
-9.904e-05
1.47882e-05
-9.72276e-05
1.68149e-05
-9.05637e-05
1.66749e-05
-8.44764e-05
1.53004e-05
-8.10242e-05
1.09633e-05
-8.0185e-05
1.18266e-05
-9.12926e-05
1.14034e-05
-9.23026e-05
6.49378e-06
-2.1218e-05
1.92544e-05
6.37093e-05
2.00652e-05
5.46117e-05
1.97097e-05
5.74392e-05
1.88204e-05
5.83478e-05
1.77446e-05
5.74378e-05
1.34233e-05
5.85969e-05
1.01724e-05
5.74443e-05
8.30538e-06
5.72684e-05
5.90436e-05
5.84594e-06
9.50289e-07
-9.43175e-05
1.87787e-06
-9.46226e-05
2.55005e-06
-9.54876e-05
3.13489e-06
-9.68558e-05
3.51141e-06
-9.84323e-05
4.32816e-06
-9.98568e-05
8.15663e-06
-0.000101056
1.55455e-05
-9.79525e-05
1.74956e-05
-8.64265e-05
1.64692e-05
-7.99978e-05
1.29886e-05
-7.67044e-05
1.24623e-05
-9.07662e-05
1.32986e-05
-9.31389e-05
1.14054e-05
-1.93247e-05
2.53947e-05
4.97206e-05
2.3267e-05
5.67396e-05
2.07102e-05
5.99962e-05
1.8066e-05
6.09922e-05
1.17849e-05
6.3719e-05
9.10997e-06
6.1272e-05
6.35195e-06
6.02026e-05
2.73812e-06
6.08826e-05
6.06427e-05
1.13935e-06
6.24502e-07
-9.49421e-05
1.29279e-06
-9.52909e-05
1.7932e-06
-9.5988e-05
2.06411e-06
-9.71267e-05
2.06004e-06
-9.84282e-05
1.86716e-06
-9.96639e-05
1.51811e-06
-0.000100707
4.4827e-06
-0.000100917
1.76501e-05
-9.95939e-05
1.84056e-05
-8.07533e-05
1.68845e-05
-7.51834e-05
8.19988e-06
-8.20815e-05
2.8579e-06
-8.77968e-05
3.3006e-05
-4.94727e-05
3.44509e-05
4.82758e-05
2.84425e-05
6.2748e-05
2.22547e-05
6.61842e-05
1.27426e-05
7.05046e-05
8.62096e-06
6.78406e-05
4.93901e-06
6.49539e-05
-5.17669e-07
6.56595e-05
-3.07714e-06
6.34424e-05
6.03408e-05
-2.77491e-06
4.72754e-07
-9.54148e-05
9.30194e-07
-9.57483e-05
1.29954e-06
-9.63574e-05
1.45878e-06
-9.7286e-05
1.38727e-06
-9.83567e-05
1.11332e-06
-9.939e-05
6.65038e-07
-0.000100259
7.69751e-07
-0.000101022
2.58556e-06
-0.00010141
1.98362e-05
-9.8004e-05
1.74685e-05
-7.28156e-05
8.80678e-06
-7.34199e-05
1.50296e-05
-9.40196e-05
5.77782e-05
-9.22213e-05
5.19563e-05
5.40975e-05
3.40616e-05
8.06427e-05
1.61882e-05
8.40575e-05
8.86573e-06
7.78269e-05
1.24262e-06
7.54635e-05
-5.82373e-06
7.202e-05
-7.61115e-06
6.74469e-05
-7.39467e-06
6.32261e-05
5.88691e-05
-5.92269e-06
2.75426e-07
-9.56902e-05
5.31988e-07
-9.60049e-05
7.39791e-07
-9.65652e-05
8.29191e-07
-9.73754e-05
7.83239e-07
-9.83107e-05
6.22407e-07
-9.92291e-05
3.96359e-07
-0.000100033
-3.66716e-09
-0.000100622
-5.09768e-07
-0.000100904
1.99115e-06
-0.000100505
1.71941e-05
-8.80185e-05
1.7692e-05
-7.39178e-05
4.07865e-05
-0.000117114
3.06843e-05
-8.21192e-05
4.06898e-05
4.40922e-05
2.13918e-05
9.99413e-05
7.50642e-06
9.79435e-05
-4.9918e-06
9.03253e-05
-1.24441e-05
8.29159e-05
-1.36305e-05
7.32063e-05
-1.29268e-05
6.67432e-05
-1.11366e-05
6.1436e-05
5.71246e-05
-9.39186e-06
8.73602e-08
-9.57776e-05
1.62314e-07
-9.60798e-05
2.22004e-07
-9.66249e-05
2.44692e-07
-9.73981e-05
2.26198e-07
-9.82922e-05
1.75849e-07
-9.91788e-05
8.95628e-08
-9.99463e-05
-4.53735e-08
-0.000100487
-6.27465e-07
-0.000100321
-1.04973e-06
-0.000100083
6.47342e-06
-9.55417e-05
3.5016e-05
-0.00010246
3.66717e-05
-0.00011877
3.79025e-05
-8.33499e-05
4.5343e-05
3.66515e-05
6.32886e-06
0.000138955
-1.22529e-05
0.000116526
-1.98959e-05
9.7969e-05
-2.03607e-05
8.33807e-05
-2.05492e-05
7.33948e-05
-1.90936e-05
6.52876e-05
-1.67499e-05
5.90925e-05
5.41626e-05
-1.37876e-05
5.80824e-08
-9.58357e-05
9.99642e-08
-9.61218e-05
1.49192e-07
-9.66741e-05
2.05235e-07
-9.74542e-05
2.51271e-07
-9.83383e-05
3.09411e-07
-9.92369e-05
3.79585e-07
-0.000100017
5.15441e-07
-0.000100623
8.68966e-07
-0.000100675
3.1029e-06
-0.000102317
1.7779e-05
-0.000110218
3.88402e-05
-0.000123521
7.72898e-05
-0.000157219
5.03487e-05
-5.64089e-05
2.93225e-05
5.76778e-05
-1.45552e-05
0.000182832
-3.30594e-05
0.000135029
-3.49683e-05
9.98784e-05
-3.2763e-05
8.11753e-05
-2.88004e-05
6.94321e-05
-2.47258e-05
6.1213e-05
-2.07083e-05
5.50752e-05
4.996e-05
-1.65056e-05
-5.47253e-06
-9.03632e-05
-1.10111e-05
-9.05833e-05
-1.73031e-05
-9.03825e-05
-2.38127e-05
-9.09449e-05
-3.03942e-05
-9.17571e-05
-3.69566e-05
-9.2675e-05
-4.28727e-05
-9.4101e-05
-5.25228e-05
-9.09728e-05
-5.68272e-05
-9.63709e-05
-5.71442e-05
-0.000102001
-6.47559e-05
-0.000102606
-5.13484e-05
-0.000136929
-5.89108e-05
-0.000149657
-8.91438e-05
-2.61761e-05
-9.66643e-05
6.51991e-05
-6.59664e-05
0.000152135
-4.30852e-05
0.000112146
-3.32371e-05
9.003e-05
-2.70071e-05
7.49453e-05
-2.24829e-05
6.49078e-05
-1.89264e-05
5.76565e-05
-1.60505e-05
5.21994e-05
4.77083e-05
-1.37986e-05
-7.35438e-06
-8.30094e-05
-1.39598e-05
-8.39785e-05
-1.96199e-05
-8.47231e-05
-2.51857e-05
-8.53796e-05
-3.09256e-05
-8.60178e-05
-4.03882e-05
-8.32131e-05
-5.84551e-05
-7.60343e-05
-7.29775e-05
-7.64506e-05
-6.01086e-05
-0.000109241
-4.42867e-05
-0.000117822
-6.35445e-05
-8.33484e-05
-0.000105
-9.54744e-05
-0.000190485
-6.41734e-05
-0.000200115
-1.65459e-05
-0.000168165
3.32494e-05
-9.11283e-05
7.50988e-05
-5.91823e-05
8.02001e-05
-4.28594e-05
7.3707e-05
-3.31792e-05
6.52652e-05
-2.66988e-05
5.84273e-05
-2.19682e-05
5.29258e-05
-1.82854e-05
4.85166e-05
4.4738e-05
-1.53149e-05
-5.93636e-06
-7.70732e-05
-1.23673e-05
-7.75482e-05
-1.95192e-05
-7.75718e-05
-2.82924e-05
-7.6607e-05
-3.99771e-05
-7.43339e-05
-5.25797e-05
-7.06112e-05
-5.00273e-05
-7.85872e-05
-3.5052e-05
-9.14267e-05
-4.67066e-05
-9.75863e-05
-9.9238e-05
-6.52908e-05
-0.000112457
-7.01296e-05
-0.000140949
-6.6982e-05
-0.000162779
-4.23433e-05
-0.000158559
-2.07664e-05
-0.000134547
9.23625e-06
-9.12831e-05
3.18348e-05
-6.35697e-05
5.24867e-05
-4.74063e-05
5.75433e-05
-3.71347e-05
5.49937e-05
-2.97577e-05
5.10503e-05
-2.43614e-05
4.75295e-05
-2.0185e-05
4.43402e-05
4.13801e-05
-1.68271e-05
-5.32866e-06
-7.17448e-05
-1.09099e-05
-7.19678e-05
-1.69917e-05
-7.14905e-05
-2.28415e-05
-7.07578e-05
-2.34383e-05
-7.37377e-05
-2.64812e-05
-6.75688e-05
-2.79693e-05
-7.70995e-05
-3.71857e-05
-8.22107e-05
-4.9828e-05
-8.49444e-05
-5.85407e-05
-5.65788e-05
-7.29189e-05
-5.57512e-05
-0.00010277
-3.71307e-05
-0.000116125
-2.8988e-05
-0.000121228
-1.5664e-05
-0.000109139
-2.85268e-06
-8.95764e-05
1.22716e-05
-6.88018e-05
3.17121e-05
-4.89441e-05
3.76854e-05
-3.9062e-05
4.51114e-05
-3.16044e-05
4.35927e-05
-2.60083e-05
4.19334e-05
-2.15793e-05
3.99113e-05
3.78184e-05
-1.80176e-05
-4.79654e-06
-6.69488e-05
-9.48939e-06
-6.72757e-05
-1.3736e-05
-6.72444e-05
-1.78004e-05
-6.6694e-05
-2.55835e-05
-6.59551e-05
-2.26767e-05
-7.04761e-05
-2.79151e-05
-7.18616e-05
-3.79997e-05
-7.21264e-05
-5.48008e-05
-6.81441e-05
-6.14865e-05
-4.98935e-05
-8.17702e-05
-3.5468e-05
-8.96218e-05
-2.92803e-05
-9.55253e-05
-2.30848e-05
-9.6051e-05
-1.51383e-05
-9.21614e-05
-6.74265e-06
-8.2392e-05
2.50201e-06
-6.63387e-05
1.56588e-05
-5.61724e-05
2.75189e-05
-4.26669e-05
3.16058e-05
-3.29544e-05
3.38801e-05
-2.72093e-05
3.61882e-05
-2.25383e-05
3.52403e-05
3.41735e-05
-1.88934e-05
-3.92854e-06
-6.30207e-05
-7.82775e-06
-6.3377e-05
-1.17219e-05
-6.33508e-05
-1.53568e-05
-6.30597e-05
-1.80643e-05
-6.32483e-05
-2.33435e-05
-6.51975e-05
-3.06015e-05
-6.46039e-05
-4.22713e-05
-6.0457e-05
-5.88532e-05
-5.15626e-05
-7.03729e-05
-3.83741e-05
-7.48091e-05
-3.10326e-05
-7.83367e-05
-2.57533e-05
-8.14636e-05
-1.99581e-05
-7.96329e-05
-1.69693e-05
-7.66879e-05
-9.68788e-06
-7.29376e-05
-1.24851e-06
-6.2946e-05
5.66709e-06
-5.28317e-05
1.74045e-05
-4.53531e-05
2.41271e-05
-3.7834e-05
2.63609e-05
-2.96716e-05
2.80258e-05
-2.36799e-05
2.92485e-05
3.0245e-05
-1.97514e-05
-3.52347e-06
-5.94975e-05
-7.12953e-06
-5.97712e-05
-1.08221e-05
-5.96586e-05
-1.4442e-05
-5.94404e-05
-1.80022e-05
-5.96885e-05
-2.51763e-05
-5.80237e-05
-3.49581e-05
-5.48225e-05
-4.51244e-05
-5.02912e-05
-5.57844e-05
-4.09028e-05
-6.15994e-05
-3.25593e-05
-6.49073e-05
-2.7725e-05
-6.77429e-05
-2.29181e-05
-7.00047e-05
-1.76965e-05
-6.75217e-05
-1.94525e-05
-6.53513e-05
-1.18585e-05
-6.33064e-05
-3.29365e-06
-5.91346e-05
1.49514e-06
-4.92489e-05
7.51867e-06
-4.24719e-05
1.73499e-05
-3.72818e-05
2.11707e-05
-3.20044e-05
2.27484e-05
-2.67634e-05
2.40073e-05
2.51274e-05
-2.16458e-05
-3.38527e-06
-5.61125e-05
-6.91419e-06
-5.62425e-05
-1.06477e-05
-5.59254e-05
-1.47747e-05
-5.53135e-05
-2.06239e-05
-5.38397e-05
-2.80082e-05
-5.064e-05
-3.50419e-05
-4.77893e-05
-4.30363e-05
-4.22971e-05
-5.01902e-05
-3.37492e-05
-5.36958e-05
-2.90539e-05
-5.62974e-05
-2.51237e-05
-5.82175e-05
-2.09983e-05
-5.93924e-05
-1.65219e-05
-5.88637e-05
-1.99813e-05
-5.77356e-05
-1.29869e-05
-5.47772e-05
-6.25227e-06
-5.25909e-05
-6.91382e-07
-4.83179e-05
3.24547e-06
-4.02338e-05
9.26568e-06
-3.50785e-05
1.60153e-05
-3.09783e-05
1.86481e-05
-2.70864e-05
2.01153e-05
2.11979e-05
-2.31569e-05
-3.5021e-06
-5.26105e-05
-7.23828e-06
-5.25066e-05
-1.14456e-05
-5.17184e-05
-1.63776e-05
-5.03819e-05
-2.20139e-05
-4.82039e-05
-2.7358e-05
-4.52964e-05
-3.33699e-05
-4.17779e-05
-4.07084e-05
-3.49591e-05
-4.43878e-05
-3.00703e-05
-4.68631e-05
-2.6579e-05
-4.87929e-05
-2.31941e-05
-5.01593e-05
-1.96323e-05
-5.08404e-05
-1.5841e-05
-5.18775e-05
-1.89445e-05
-5.0386e-05
-1.44787e-05
-4.83366e-05
-8.30184e-06
-4.64119e-05
-2.61635e-06
-4.3942e-05
7.75352e-07
-3.91444e-05
4.46796e-06
-3.34273e-05
1.02981e-05
-2.94159e-05
1.46365e-05
-2.60063e-05
1.67056e-05
1.81219e-05
-2.29304e-05
-3.76816e-06
-4.88424e-05
-7.73654e-06
-4.85386e-05
-1.20033e-05
-4.74519e-05
-1.66161e-05
-4.57695e-05
-2.12906e-05
-4.35297e-05
-2.60367e-05
-4.05508e-05
-3.22479e-05
-3.55672e-05
-3.63956e-05
-3.0812e-05
-3.89236e-05
-2.75428e-05
-4.08684e-05
-2.46346e-05
-4.23737e-05
-2.16891e-05
-4.33872e-05
-1.86191e-05
-4.37762e-05
-1.54523e-05
-4.54641e-05
-1.72569e-05
-4.4554e-05
-1.53891e-05
-4.27138e-05
-1.01422e-05
-4.08818e-05
-4.44857e-06
-3.92687e-05
-8.37973e-07
-3.67927e-05
1.99188e-06
-3.21362e-05
5.64146e-06
-2.80691e-05
1.05693e-05
-2.4919e-05
1.35555e-05
1.53568e-05
-2.2154e-05
-3.83791e-06
-4.50047e-05
-7.76892e-06
-4.46078e-05
-1.17881e-05
-4.3433e-05
-1.58559e-05
-4.17019e-05
-2.00982e-05
-3.92877e-05
-2.51859e-05
-3.54634e-05
-2.94962e-05
-3.12573e-05
-3.20976e-05
-2.8211e-05
-3.40397e-05
-2.5601e-05
-3.56166e-05
-2.3058e-05
-3.68513e-05
-2.04547e-05
-3.7696e-05
-1.77746e-05
-3.80601e-05
-1.50886e-05
-3.94879e-05
-1.58294e-05
-3.90527e-05
-1.58245e-05
-3.7989e-05
-1.12062e-05
-3.60107e-05
-6.42705e-06
-3.47753e-05
-2.07352e-06
-3.32902e-05
5.06688e-07
-3.08462e-05
3.19733e-06
-2.70196e-05
6.74256e-06
-2.38943e-05
1.04302e-05
1.27614e-05
-2.1299e-05
-3.69615e-06
-4.13087e-05
-7.41205e-06
-4.0892e-05
-1.11442e-05
-3.9701e-05
-1.50306e-05
-3.78156e-05
-1.95042e-05
-3.48143e-05
-2.35421e-05
-3.14257e-05
-2.61256e-05
-2.8674e-05
-2.80549e-05
-2.6282e-05
-2.96456e-05
-2.40105e-05
-3.09698e-05
-2.1734e-05
-3.20211e-05
-1.94037e-05
-3.27735e-05
-1.70225e-05
-3.31933e-05
-1.46691e-05
-3.40922e-05
-1.49307e-05
-3.4081e-05
-1.58359e-05
-3.33825e-05
-1.1905e-05
-3.19694e-05
-7.84026e-06
-3.07537e-05
-3.28939e-06
-2.96593e-05
-5.87744e-07
-2.81338e-05
1.67167e-06
-2.57099e-05
4.31863e-06
-2.28176e-05
7.53779e-06
1.02736e-05
-2.03298e-05
-3.48582e-06
-3.7823e-05
-7.01147e-06
-3.73664e-05
-1.07158e-05
-3.59967e-05
-1.47482e-05
-3.37833e-05
-1.82871e-05
-3.12754e-05
-2.07968e-05
-2.89161e-05
-2.27246e-05
-2.67462e-05
-2.43209e-05
-2.46859e-05
-2.56777e-05
-2.2654e-05
-2.68151e-05
-2.05968e-05
-2.77248e-05
-1.84942e-05
-2.83904e-05
-1.6357e-05
-2.87775e-05
-1.42821e-05
-2.94342e-05
-1.42742e-05
-2.96599e-05
-1.56103e-05
-2.923e-05
-1.2335e-05
-2.83758e-05
-8.6946e-06
-2.70541e-05
-4.61124e-06
-2.61372e-05
-1.50467e-06
-2.51072e-05
6.41513e-07
-2.35958e-05
2.80722e-06
-2.13949e-05
5.33686e-06
8.007e-06
-1.91284e-05
-3.40483e-06
-3.44181e-05
-6.93795e-06
-3.38333e-05
-1.04594e-05
-3.24753e-05
-1.35111e-05
-3.07317e-05
-1.59419e-05
-2.88446e-05
-1.78947e-05
-2.69633e-05
-1.95186e-05
-2.51225e-05
-2.09014e-05
-2.33032e-05
-2.20829e-05
-2.14726e-05
-2.30721e-05
-1.96077e-05
-2.38635e-05
-1.77029e-05
-2.44435e-05
-1.57771e-05
-2.47755e-05
-1.39503e-05
-2.53178e-05
-1.3732e-05
-2.56811e-05
-1.52472e-05
-2.54779e-05
-1.25383e-05
-2.48922e-05
-9.28045e-06
-2.36722e-05
-5.83127e-06
-2.29145e-05
-2.26241e-06
-2.21211e-05
-1.5191e-07
-2.10475e-05
1.73352e-06
-1.95398e-05
3.82913e-06
6.09603e-06
-1.76288e-05
-3.22891e-06
-3.11892e-05
-6.32213e-06
-3.07401e-05
-9.10454e-06
-2.96929e-05
-1.14867e-05
-2.83496e-05
-1.34783e-05
-2.68531e-05
-1.51491e-05
-2.52925e-05
-1.65684e-05
-2.37033e-05
-1.77837e-05
-2.20879e-05
-1.88189e-05
-2.04374e-05
-1.96811e-05
-1.87456e-05
-2.03675e-05
-1.70166e-05
-2.08668e-05
-1.52779e-05
-2.11543e-05
-1.36629e-05
-2.16158e-05
-1.32706e-05
-2.2077e-05
-1.4786e-05
-2.20125e-05
-1.26029e-05
-2.15737e-05
-9.71936e-06
-2.07299e-05
-6.67509e-06
-1.99244e-05
-3.068e-06
-1.92224e-05
-8.53934e-07
-1.84008e-05
9.11939e-07
-1.72892e-05
2.71742e-06
4.65464e-06
-1.58478e-05
-2.68445e-06
-2.85048e-05
-5.225e-06
-2.81995e-05
-7.50775e-06
-2.74102e-05
-9.49244e-06
-2.63649e-05
-1.1191e-05
-2.51545e-05
-1.26414e-05
-2.38421e-05
-1.38837e-05
-2.24611e-05
-1.49473e-05
-2.10243e-05
-1.58489e-05
-1.95359e-05
-1.65946e-05
-1.79999e-05
-1.71837e-05
-1.64276e-05
-1.76083e-05
-1.48533e-05
-1.78617e-05
-1.34095e-05
-1.82528e-05
-1.28796e-05
-1.87687e-05
-1.42701e-05
-1.88112e-05
-1.25604e-05
-1.85411e-05
-9.98953e-06
-1.80192e-05
-7.19704e-06
-1.70292e-05
-4.05802e-06
-1.64775e-05
-1.40565e-06
-1.58674e-05
3.01797e-07
-1.50385e-05
1.88853e-06
3.57742e-06
-1.39613e-05
-2.14354e-06
-2.63612e-05
-4.1877e-06
-2.61554e-05
-6.05104e-06
-2.55469e-05
-7.70105e-06
-2.47149e-05
-9.1382e-06
-2.37174e-05
-1.03807e-05
-2.25997e-05
-1.14507e-05
-2.13911e-05
-1.23661e-05
-2.01089e-05
-1.31382e-05
-1.87639e-05
-1.37719e-05
-1.73662e-05
-1.42675e-05
-1.59321e-05
-1.46215e-05
-1.44993e-05
-1.48421e-05
-1.3189e-05
-1.51649e-05
-1.25568e-05
-1.57036e-05
-1.37315e-05
-1.58236e-05
-1.24404e-05
-1.56533e-05
-1.01599e-05
-1.52641e-05
-7.58628e-06
-1.44855e-05
-4.8367e-06
-1.39706e-05
-1.92054e-06
-1.34752e-05
-1.93611e-07
-1.28261e-05
1.23942e-06
2.76677e-06
-1.20155e-05
-1.67673e-06
-2.46845e-05
-3.2898e-06
-2.45424e-05
-4.78133e-06
-2.40554e-05
-6.12379e-06
-2.33725e-05
-7.31027e-06
-2.25309e-05
-8.34657e-06
-2.15634e-05
-9.24312e-06
-2.04946e-05
-1.00097e-05
-1.93424e-05
-1.06529e-05
-1.81207e-05
-1.11759e-05
-1.68433e-05
-1.15791e-05
-1.55289e-05
-1.18628e-05
-1.42156e-05
-1.20438e-05
-1.30081e-05
-1.22978e-05
-1.23028e-05
-1.28315e-05
-1.31979e-05
-1.30111e-05
-1.22608e-05
-1.29321e-05
-1.02389e-05
-1.26458e-05
-7.87252e-06
-1.21047e-05