/*--------------------------------*- C++ -*----------------------------------*\
| =========                 |                                                 |
| \\      /  F ield         | foam-extend: Open Source CFD                    |
|  \\    /   O peration     | Version:     4.1                                |
|   \\  /    A nd           | Web:         http://www.foam-extend.org         |
|    \\/     M anipulation  |                                                 |
\*---------------------------------------------------------------------------*/
FoamFile
{
    version     2.0;
    format      ascii;
    class       surfaceScalarField;
    location    "0.05";
    object      phi_0;
}
// * * * * * * * * * * * * * * * * * * * * * * * * * * * * * * * * * * * * * //

dimensions      [0 3 -1 0 0 0 0];

internalField   nonuniform List<scalar> 
4432
(
2.96864e-06
-2.96864e-06
5.98158e-06
-3.01294e-06
9.08196e-06
-3.10037e-06
1.23151e-05
-3.23319e-06
1.57259e-05
-3.4108e-06
1.93514e-05
-3.62541e-06
2.32055e-05
-3.85413e-06
2.72397e-05
-4.03422e-06
3.15287e-05
-4.28899e-06
3.58031e-05
-4.27445e-06
5.73061e-05
-2.15032e-05
7.55392e-05
-1.82331e-05
8.99774e-05
-1.44381e-05
0.000108709
-1.87313e-05
0.000127613
-1.89038e-05
0.000119045
8.56869e-06
9.10507e-05
2.79952e-05
6.3565e-05
2.74855e-05
4.30216e-05
2.05456e-05
2.92674e-05
1.37511e-05
1.8743e-05
1.05226e-05
9.16091e-06
9.58308e-06
9.16167e-06
2.96952e-06
-5.93816e-06
5.98324e-06
-6.02667e-06
9.08426e-06
-6.20139e-06
1.23181e-05
-6.46704e-06
1.57301e-05
-6.82278e-06
1.93592e-05
-7.25452e-06
2.32103e-05
-7.70522e-06
2.72628e-05
-8.08683e-06
3.12526e-05
-8.27889e-06
3.88559e-05
-1.18778e-05
5.68503e-05
-3.94977e-05
7.2181e-05
-3.35637e-05
8.7629e-05
-2.98859e-05
0.00010649
-3.75925e-05
0.000123494
-3.59072e-05
0.000111475
2.05865e-05
8.67841e-05
5.26857e-05
6.0683e-05
5.35819e-05
4.31753e-05
3.8054e-05
3.16075e-05
2.53186e-05
2.05122e-05
2.16181e-05
9.45957e-06
2.06368e-05
1.86217e-05
2.9639e-06
-8.90206e-06
5.97171e-06
-9.03448e-06
9.06632e-06
-9.296e-06
1.22933e-05
-9.69403e-06
1.56991e-05
-1.02286e-05
1.93248e-05
-1.08802e-05
2.31909e-05
-1.15713e-05
2.71897e-05
-1.20857e-05
3.106e-05
-1.21494e-05
5.18978e-05
-3.27156e-05
5.76897e-05
-4.52896e-05
6.8884e-05
-4.47581e-05
8.33005e-05
-4.43024e-05
0.00010126
-5.55518e-05
0.000113683
-4.833e-05
9.25835e-05
4.16833e-05
6.85398e-05
7.67309e-05
5.28475e-05
6.92708e-05
4.17711e-05
4.91309e-05
3.33322e-05
3.37577e-05
2.24358e-05
3.25151e-05
9.67443e-06
3.3399e-05
2.82965e-05
2.95567e-06
-1.18577e-05
5.95487e-06
-1.20337e-05
9.04013e-06
-1.23813e-05
1.22571e-05
-1.2911e-05
1.56538e-05
-1.36253e-05
1.92738e-05
-1.45003e-05
2.31823e-05
-1.54798e-05
2.74253e-05
-1.63287e-05
4.22949e-05
-2.70192e-05
5.05913e-05
-4.1012e-05
5.66082e-05
-5.13064e-05
6.46216e-05
-5.27715e-05
7.70536e-05
-5.67343e-05
9.02889e-05
-6.87869e-05
9.53018e-05
-5.33424e-05
7.40795e-05
6.29038e-05
5.7374e-05
9.34379e-05
4.91749e-05
7.74674e-05
4.33273e-05
5.49787e-05
3.48211e-05
4.22644e-05
2.42569e-05
4.308e-05
1.06848e-05
4.69717e-05
3.89814e-05
2.94502e-06
-1.48028e-05
5.9331e-06
-1.50218e-05
9.00637e-06
-1.54545e-05
1.22105e-05
-1.61151e-05
1.55955e-05
-1.70104e-05
1.92354e-05
-1.81401e-05
2.31645e-05
-1.94089e-05
2.92371e-05
-2.24014e-05
4.20571e-05
-3.98394e-05
4.88587e-05
-4.78137e-05
5.46411e-05
-5.70888e-05
6.0542e-05
-5.86725e-05
7.01871e-05
-6.63794e-05
7.88427e-05
-7.74423e-05
7.96217e-05
-5.41205e-05
6.18903e-05
8.06342e-05
5.55037e-05
9.9825e-05
4.88733e-05
8.40966e-05
4.42527e-05
5.95994e-05
3.58839e-05
5.06337e-05
2.5846e-05
5.31185e-05
1.31271e-05
5.9691e-05
5.21087e-05
2.93239e-06
-1.77351e-05
5.90742e-06
-1.79968e-05
8.96686e-06
-1.8514e-05
1.21563e-05
-1.93045e-05
1.55323e-05
-2.03863e-05
1.92047e-05
-2.18125e-05
2.36351e-05
-2.38393e-05
3.44811e-05
-3.32475e-05
4.08647e-05
-4.62231e-05
4.67511e-05
-5.37002e-05
5.21951e-05
-6.25327e-05
5.63804e-05
-6.28578e-05
6.2895e-05
-7.28938e-05
6.83236e-05
-8.28707e-05
6.56106e-05
-5.14067e-05
5.51175e-05
9.11258e-05
5.2443e-05
0.000102501
4.80764e-05
8.84625e-05
4.33319e-05
6.43438e-05
3.65142e-05
5.74517e-05
2.74714e-05
6.21617e-05
1.69743e-05
7.01884e-05
6.90827e-05
2.91882e-06
-2.0654e-05
5.88009e-06
-2.09581e-05
8.92602e-06
-2.15599e-05
1.21034e-05
-2.24819e-05
1.5487e-05
-2.377e-05
1.93071e-05
-2.56326e-05
2.52113e-05
-2.97434e-05
3.41393e-05
-4.21755e-05
3.92563e-05
-5.13401e-05
4.4401e-05
-5.8845e-05
4.91251e-05
-6.72567e-05
5.24358e-05
-6.61686e-05
5.61486e-05
-7.66067e-05
5.93443e-05
-8.60661e-05
5.26459e-05
-4.47073e-05
4.82903e-05
9.5479e-05
4.64178e-05
0.000104374
4.3941e-05
9.09389e-05
3.97516e-05
6.85332e-05
3.63427e-05
6.08608e-05
2.93688e-05
6.91357e-05
2.24259e-05
7.71313e-05
9.15083e-05
2.87606e-06
-2.353e-05
5.79358e-06
-2.38756e-05
8.79568e-06
-2.4562e-05
1.19326e-05
-2.56188e-05
1.52855e-05
-2.71229e-05
1.93671e-05
-2.97142e-05
2.78375e-05
-3.82138e-05
3.39929e-05
-4.8331e-05
3.86576e-05
-5.60049e-05
4.32782e-05
-6.34656e-05
4.71374e-05
-7.11158e-05
5.02191e-05
-6.92504e-05
5.03509e-05
-7.67387e-05
5.11984e-05
-8.69139e-05
4.22691e-05
-3.5777e-05
3.91121e-05
9.86341e-05
3.92637e-05
0.000104223
3.84278e-05
9.17748e-05
3.26454e-05
7.43157e-05
2.67072e-05
6.67991e-05
2.80714e-05
6.77715e-05
2.34858e-05
8.17167e-05
0.000114994
3.11405e-06
-3.11405e-06
6.24918e-06
-3.1352e-06
8.81044e-06
-2.56146e-06
1.00353e-05
-1.22487e-06
1.02815e-05
-2.46358e-07
1.00692e-05
2.122e-07
9.65359e-06
4.15525e-07
9.05099e-06
6.0251e-07
8.26156e-06
7.8934e-07
7.36622e-06
8.95244e-07
6.43026e-06
9.35868e-07
5.49381e-06
9.36359e-07
4.58151e-06
9.12196e-07
3.71699e-06
8.64429e-07
2.90634e-06
8.10544e-07
2.14078e-06
7.6546e-07
1.40841e-06
7.32264e-07
6.97704e-07
7.10602e-07
6.97604e-07
3.24071e-06
-6.35497e-06
6.74748e-06
-6.64205e-06
9.23746e-06
-5.05175e-06
1.04098e-05
-2.39739e-06
1.06476e-05
-4.84315e-07
1.04506e-05
4.08981e-07
9.95196e-06
9.14002e-07
9.24229e-06
1.312e-06
8.39903e-06
1.63243e-06
7.47363e-06
1.82047e-06
6.51535e-06
1.89397e-06
5.56112e-06
1.89041e-06
4.63522e-06
1.83791e-06
3.7623e-06
1.73716e-06
2.94345e-06
1.62921e-06
2.16902e-06
1.53969e-06
1.42737e-06
1.47373e-06
7.07102e-07
1.43067e-06
1.40462e-06
3.38408e-06
-9.73925e-06
7.47592e-06
-1.07339e-05
9.74292e-06
-7.31906e-06
1.07554e-05
-3.41001e-06
1.0852e-05
-5.81073e-07
1.05697e-05
6.91094e-07
9.99495e-06
1.48864e-06
9.22321e-06
2.08359e-06
8.34225e-06
2.51325e-06
7.40279e-06
2.75979e-06
6.44332e-06
2.85329e-06
5.49421e-06
2.83938e-06
4.58064e-06
2.75132e-06
3.72335e-06
2.5943e-06
2.9166e-06
2.4358e-06
2.1511e-06
2.30503e-06
1.41636e-06
2.20831e-06
7.01867e-07
2.14499e-06
2.10642e-06
3.85626e-06
-1.35958e-05
8.45497e-06
-1.53327e-05
1.04731e-05
-9.33752e-06
1.12467e-05
-4.1838e-06
1.11494e-05
-4.83849e-07
1.07164e-05
1.12388e-06
1.00145e-05
2.19034e-06
9.16032e-06
2.93767e-06
8.23731e-06
3.43612e-06
7.28427e-06
3.71269e-06
6.32717e-06
3.81024e-06
5.38721e-06
3.77919e-06
4.50009e-06
3.6383e-06
3.66627e-06
3.42798e-06
2.877e-06
3.22491e-06
2.12451e-06
3.05735e-06
1.39997e-06
2.9327e-06
6.94061e-07
2.85073e-06
2.8004e-06
4.87255e-06
-1.84686e-05
9.66087e-06
-2.0121e-05
1.14145e-05
-1.10915e-05
1.18644e-05
-4.63387e-06
1.15154e-05
-1.35012e-07
1.08423e-05
1.7969e-06
9.96755e-06
3.06493e-06
9.02586e-06
3.87923e-06
8.06652e-06
4.39534e-06
7.10744e-06
4.67164e-06
6.16094e-06
4.75662e-06
5.24745e-06
4.69254e-06
4.3992e-06
4.48641e-06
3.59465e-06
4.2324e-06
2.82681e-06
3.9926e-06
2.09055e-06
3.79347e-06
1.37893e-06
3.64419e-06
6.84005e-07
3.54551e-06
3.48435e-06
6.52275e-06
-2.49917e-05
1.12995e-05
-2.48979e-05
1.2577e-05
-1.23694e-05
1.25499e-05
-4.60696e-06
1.18429e-05
5.71886e-07
1.08186e-05
2.82101e-06
9.77392e-06
4.10949e-06
8.77114e-06
4.88188e-06
7.7993e-06
5.36705e-06
6.85372e-06
5.61709e-06
5.93435e-06
5.67585e-06
5.0861e-06
5.54067e-06
4.28377e-06
5.2886e-06
3.51141e-06
5.00462e-06
2.76767e-06
4.7362e-06
2.05016e-06
4.51084e-06
1.35376e-06
4.34045e-06
6.7192e-07
4.22719e-06
4.15619e-06
9.85894e-06
-3.48509e-05
1.36252e-05
-2.86641e-05
1.39059e-05
-1.26505e-05
1.3021e-05
-3.72226e-06
1.1539e-05
2.05377e-06
1.03205e-05
4.03936e-06
9.27825e-06
5.15159e-06
8.31034e-06
5.84966e-06
7.38499e-06
6.29227e-06
6.49882e-06
6.50313e-06
5.686e-06
6.48855e-06
4.91443e-06
6.3121e-06
4.15851e-06
6.04439e-06
3.41901e-06
5.74398e-06
2.70107e-06
5.454e-06
2.00425e-06
5.20751e-06
1.32498e-06
5.01958e-06
6.58062e-07
4.89397e-06
4.81419e-06
1.86505e-05
-5.35017e-05
1.71646e-05
-2.71782e-05
1.30021e-05
-8.48824e-06
9.46438e-06
-1.8465e-07
8.92608e-06
2.59192e-06
8.62693e-06
4.33838e-06
8.15864e-06
5.61977e-06
7.52643e-06
6.48175e-06
6.83914e-06
6.97945e-06
6.14922e-06
7.19294e-06
5.45361e-06
7.18405e-06
4.74652e-06
7.01908e-06
4.03153e-06
6.75927e-06
3.32368e-06
6.45171e-06
2.63173e-06
6.14583e-06
1.95617e-06
5.88296e-06
1.29474e-06
5.6809e-06
6.43492e-07
5.54509e-06
5.45763e-06
6.1288e-06
-2.96588e-05
1.23618e-05
-3.01086e-05
1.88373e-05
-3.10375e-05
2.58576e-05
-3.26391e-05
3.45578e-05
-3.58231e-05
4.71624e-05
-4.23187e-05
5.87705e-05
-4.98219e-05
6.7207e-05
-5.67675e-05
7.48562e-05
-6.36542e-05
8.21363e-05
-7.07457e-05
8.75494e-05
-7.65289e-05
9.14352e-05
-7.31362e-05
9.83259e-05
-8.36292e-05
0.00010122
-8.9808e-05
7.22082e-05
-6.76538e-06
6.92617e-05
0.000101579
7.03036e-05
0.000103181
6.84102e-05
9.36682e-05
5.90874e-05
8.36385e-05
5.1146e-05
7.47405e-05
4.87276e-05
7.01898e-05
5.86975e-05
7.17467e-05
5.74429e-05
0.000116249
6.26266e-06
-3.59215e-05
1.27274e-05
-3.65734e-05
1.98069e-05
-3.8117e-05
2.82346e-05
-4.10668e-05
3.8025e-05
-4.56134e-05
4.67409e-05
-5.10346e-05
5.38461e-05
-5.69271e-05
6.00583e-05
-6.29797e-05
6.56685e-05
-6.92644e-05
7.05201e-05
-7.55973e-05
7.35695e-05
-7.95784e-05
7.66447e-05
-7.62114e-05
7.80404e-05
-8.50249e-05
7.77095e-05
-8.9477e-05
4.99029e-05
2.10408e-05
5.37012e-05
9.77801e-05
5.62933e-05
0.000100588
5.45973e-05
9.53642e-05
5.17e-05
8.65359e-05
4.93097e-05
7.71308e-05
5.18016e-05
6.76976e-05
7.65869e-05
4.69613e-05
3.85738e-05
9.54563e-05
6.79277e-06
-4.27142e-05
1.39342e-05
-4.37149e-05
2.15428e-05
-4.57255e-05
2.92673e-05
-4.87914e-05
3.64639e-05
-5.281e-05
4.29117e-05
-5.74824e-05
4.8558e-05
-6.25734e-05
5.35175e-05
-6.79393e-05
5.77284e-05
-7.34753e-05
6.08799e-05
-7.87489e-05
6.2448e-05
-8.11465e-05
6.46185e-05
-7.83819e-05
6.59726e-05
-8.63791e-05
6.40971e-05
-8.76015e-05
4.02296e-05
4.49076e-05
4.35074e-05
9.45019e-05
4.67301e-05
9.73654e-05
4.71217e-05
9.49727e-05
4.65229e-05
8.71347e-05
4.65562e-05
7.70974e-05
6.26321e-05
5.16213e-05
6.99871e-05
3.96055e-05
3.39402e-05
7.46199e-05
6.94254e-06
-4.96568e-05
1.38706e-05
-5.06429e-05
2.0692e-05
-5.25469e-05
2.72109e-05
-5.53103e-05
3.31975e-05
-5.87966e-05
3.85425e-05
-6.28274e-05
4.3205e-05
-6.72359e-05
4.71401e-05
-7.18744e-05
5.01928e-05
-7.6528e-05
5.2078e-05
-8.06342e-05
5.28348e-05
-8.19033e-05
5.44439e-05
-7.9991e-05
5.56282e-05
-8.75634e-05
5.26719e-05
-8.46451e-05
3.51902e-05
6.2389e-05
3.77991e-05
9.18929e-05
4.19732e-05
9.31912e-05
4.66589e-05
9.02873e-05
5.05049e-05
8.3289e-05
5.92467e-05
6.83558e-05
6.50842e-05
4.57841e-05
6.49153e-05
3.97746e-05
3.44085e-05
6.44472e-05
6.44505e-06
-5.61018e-05
1.27738e-05
-5.69717e-05
1.88513e-05
-5.86244e-05
2.45309e-05
-6.09899e-05
2.96798e-05
-6.39454e-05
3.42045e-05
-6.73522e-05
3.80354e-05
-7.10668e-05
4.1083e-05
-7.4922e-05
4.32001e-05
-7.86451e-05
4.42351e-05
-8.16692e-05
4.46241e-05
-8.22923e-05
4.5847e-05
-8.12139e-05
4.67306e-05
-8.84471e-05
4.23959e-05
-8.03101e-05
3.12928e-05
7.3492e-05
3.36325e-05
8.95532e-05
3.85875e-05
8.82363e-05
4.52567e-05
8.36183e-05
5.27313e-05
7.58147e-05
6.01075e-05
6.09798e-05
5.86742e-05
4.72174e-05
5.72563e-05
4.11925e-05
3.6452e-05
5.52128e-05
5.79896e-06
-6.19008e-05
1.14611e-05
-6.26339e-05
1.6847e-05
-6.40103e-05
2.1824e-05
-6.59669e-05
2.62733e-05
-6.83947e-05
3.00936e-05
-7.11724e-05
3.31953e-05
-7.41685e-05
3.54887e-05
-7.72154e-05
3.68899e-05
-8.00463e-05
3.74116e-05
-8.21908e-05
3.76538e-05
-8.25345e-05
3.85829e-05
-8.2143e-05
3.92342e-05
-8.90985e-05
3.23955e-05
-7.34712e-05
2.68174e-05
7.90699e-05
2.93448e-05
8.70259e-05
3.46498e-05
8.29314e-05
4.14865e-05
7.67818e-05
4.90021e-05
6.82993e-05
5.30053e-05
5.69767e-05
5.17816e-05
4.84411e-05
5.00126e-05
4.29614e-05
3.92075e-05
4.72568e-05
5.14458e-06
-6.70454e-05
1.01593e-05
-6.76486e-05
1.49121e-05
-6.87631e-05
1.9274e-05
-7.03289e-05
2.31199e-05
-7.22405e-05
2.6332e-05
-7.43846e-05
2.88088e-05
-7.66453e-05
3.04816e-05
-7.88881e-05
3.13489e-05
-8.09136e-05
3.15589e-05
-8.24008e-05
3.17138e-05
-8.26894e-05
3.2411e-05
-8.28403e-05
3.27873e-05
-8.94749e-05
2.37712e-05
-6.4455e-05
2.1335e-05
8.15062e-05
2.46431e-05
8.3718e-05
3.05468e-05
7.7028e-05
3.75916e-05
6.97372e-05
4.35876e-05
6.23035e-05
4.55787e-05
5.49857e-05
4.49667e-05
4.9053e-05
4.32751e-05
4.46529e-05
4.19831e-05
4.04992e-05
4.51884e-06
-7.15642e-05
8.92811e-06
-7.20579e-05
1.3112e-05
-7.2947e-05
1.6946e-05
-7.41629e-05
2.0294e-05
-7.55885e-05
2.30136e-05
-7.71042e-05
2.4983e-05
-7.86147e-05
2.61503e-05
-8.00554e-05
2.65913e-05
-8.13546e-05
2.65553e-05
-8.23649e-05
2.66061e-05
-8.27402e-05
2.71279e-05
-8.33621e-05
2.7331e-05
-8.9678e-05
1.64688e-05
-5.35928e-05
1.59496e-05
8.20256e-05
2.03066e-05
7.93616e-05
2.72782e-05
7.00567e-05
3.33407e-05
6.36748e-05
3.72475e-05
5.83968e-05
3.87233e-05
5.35099e-05
3.85091e-05
4.92672e-05
3.71603e-05
4.60017e-05
4.41164e-05
3.50269e-05
3.91955e-06
-7.54838e-05
7.76066e-06
-7.5899e-05
1.14359e-05
-7.66222e-05
1.48359e-05
-7.75629e-05
1.78169e-05
-7.85696e-05
2.01987e-05
-7.9486e-05
2.18038e-05
-8.02198e-05
2.25557e-05
-8.08073e-05
2.25913e-05
-8.13903e-05
2.22764e-05
-8.20499e-05
2.21782e-05
-8.2642e-05
2.25818e-05
-8.37656e-05
2.26853e-05
-8.97816e-05
1.0626e-05
-4.15334e-05
1.13444e-05
8.13076e-05
1.77801e-05
7.29266e-05
2.43121e-05
6.35252e-05
2.87515e-05
5.92356e-05
3.14679e-05
5.56807e-05
3.26915e-05
5.22863e-05
3.27165e-05
4.92422e-05
3.17631e-05
4.69552e-05
4.5752e-05
3.01275e-05
3.32433e-06
-7.88081e-05
6.60819e-06
-7.91828e-05
9.80918e-06
-7.98232e-05
1.28548e-05
-8.06085e-05
1.56184e-05
-8.13332e-05
1.78743e-05
-8.17419e-05
1.93228e-05
-8.16683e-05
1.9762e-05
-8.12464e-05
1.93462e-05
-8.09745e-05
1.86399e-05
-8.13436e-05
1.83465e-05
-8.23487e-05
1.87007e-05
-8.41198e-05
1.84517e-05
-8.95326e-05
7.26867e-06
-3.03501e-05
8.78253e-06
7.97944e-05
1.67886e-05
6.49213e-05
2.16215e-05
5.86928e-05
2.47154e-05
5.61421e-05
2.66283e-05
5.3768e-05
2.75805e-05
5.13342e-05
2.76794e-05
4.91434e-05
2.6913e-05
4.77217e-05
4.74237e-05
2.52413e-05
2.70335e-06
-8.15115e-05
5.39544e-06
-8.18749e-05
8.09736e-06
-8.25251e-05
1.08048e-05
-8.3316e-05
1.34724e-05
-8.40009e-05
1.58537e-05
-8.41232e-05
1.74624e-05
-8.3277e-05
1.7792e-05
-8.15761e-05
1.69869e-05
-8.01694e-05
1.57203e-05
-8.00769e-05
1.51706e-05
-8.1799e-05
1.54973e-05
-8.44465e-05
1.50943e-05
-8.91298e-05
4.22432e-06
-1.94799e-05
8.60861e-06
7.54109e-05
1.60905e-05
5.74398e-05
1.95153e-05
5.52684e-05
2.14818e-05
5.41761e-05
2.26867e-05
5.25633e-05
2.32919e-05
5.07292e-05
2.31658e-05
4.92695e-05
2.21378e-05
4.87497e-05
4.98604e-05
1.97012e-05
1.99998e-06
-8.35114e-05
3.97688e-06
-8.38518e-05
6.07312e-06
-8.46214e-05
8.37321e-06
-8.56161e-05
1.0958e-05
-8.65857e-05
1.36239e-05
-8.67891e-05
1.57663e-05
-8.54194e-05
1.63434e-05
-8.21531e-05
1.5818e-05
-7.9644e-05
1.40443e-05
-7.83033e-05
1.25919e-05
-8.03465e-05
1.27697e-05
-8.46244e-05
1.17836e-05
-8.81437e-05
4.50153e-06
-1.21975e-05
1.16803e-05
6.8233e-05
1.64921e-05
5.26283e-05
1.8394e-05
5.33669e-05
1.91605e-05
5.341e-05
1.94812e-05
5.2243e-05
1.95144e-05
5.06962e-05
1.78111e-05
5.0973e-05
1.46254e-05
5.19355e-05
5.21039e-05
1.23819e-05
1.39862e-06
-8.49101e-05
2.76671e-06
-8.52199e-05
4.24381e-06
-8.60985e-05
5.98348e-06
-8.73557e-05
8.15473e-06
-8.87569e-05
1.07718e-05
-8.94062e-05
1.34318e-05
-8.80794e-05
1.5192e-05
-8.39133e-05
1.54121e-05
-7.98641e-05
1.42218e-05
-7.71129e-05
1.09873e-05
-7.71121e-05
1.15344e-05
-8.51715e-05
1.10781e-05
-8.76871e-05
6.54922e-06
-7.66844e-06
1.67147e-05
5.80683e-05
1.81664e-05
5.11774e-05
1.8236e-05
5.3298e-05
1.76292e-05
5.40175e-05
1.66503e-05
5.32225e-05
1.27577e-05
5.45892e-05
9.72955e-06
5.40013e-05
8.14584e-06
5.35194e-05
5.35845e-05
6.66536e-06
9.72123e-07
-8.58822e-05
1.9156e-06
-8.61634e-05
2.6641e-06
-8.6847e-05
3.34151e-06
-8.80332e-05
3.97184e-06
-8.93872e-05
5.2014e-06
-9.06357e-05
8.78706e-06
-9.1665e-05
1.4089e-05
-8.92153e-05
1.58009e-05
-8.1576e-05
1.50994e-05
-7.64113e-05
1.17313e-05
-7.3744e-05
1.16792e-05
-8.51195e-05
1.28097e-05
-8.88175e-05
1.10098e-05
-5.86817e-06
2.26687e-05
4.64101e-05
2.14172e-05
5.24297e-05
1.93023e-05
5.54136e-05
1.68454e-05
5.64752e-05
1.09838e-05
5.90847e-05
8.39414e-06
5.71793e-05
6.04074e-06
5.6355e-05
3.48805e-06
5.60723e-05
5.46735e-05
2.39918e-06
6.38126e-07
-8.65203e-05
1.29994e-06
-8.68252e-05
1.85129e-06
-8.73983e-05
2.2223e-06
-8.84042e-05
2.40968e-06
-8.95746e-05
2.51961e-06
-9.07456e-05
2.69806e-06
-9.18435e-05
6.20691e-06
-9.27241e-05
1.59245e-05
-9.12936e-05
1.66484e-05
-7.71352e-05
1.4688e-05
-7.17835e-05
8.4199e-06
-7.88514e-05
3.80074e-06
-8.41984e-05
2.9934e-05
-3.2001e-05
3.17461e-05
4.45988e-05
2.63528e-05
5.78236e-05
2.06151e-05
6.11519e-05
1.1736e-05
6.53549e-05
7.85899e-06
6.29623e-05
4.29677e-06
6.0742e-05
4.06392e-07
6.02457e-05
-1.13443e-06
5.76133e-05
5.45234e-05
-9.84191e-07
4.55189e-07
-8.69755e-05
8.98207e-07
-8.72682e-05
1.29931e-06
-8.77994e-05
1.53493e-06
-8.86398e-05
1.605e-06
-8.96447e-05
1.55193e-06
-9.06926e-05
1.44706e-06
-9.17386e-05
1.57511e-06
-9.28522e-05
3.69901e-06
-9.34175e-05
1.76979e-05
-9.11342e-05
1.56888e-05
-6.97745e-05
6.97343e-06
-7.0136e-05
1.4082e-05
-9.1307e-05
5.90437e-05
-7.69624e-05
4.81847e-05
5.54584e-05
3.15314e-05
7.44774e-05
1.51672e-05
7.75166e-05
8.04143e-06
7.24816e-05
1.44505e-06
6.95596e-05
-3.863e-06
6.60507e-05
-5.36892e-06
6.17521e-05
-5.35012e-06
5.75948e-05
5.34052e-05
-4.23174e-06
2.75744e-07
-8.72513e-05
5.37961e-07
-8.75305e-05
7.73076e-07
-8.80345e-05
9.14253e-07
-8.8781e-05
9.53695e-07
-8.96842e-05
9.11732e-07
-9.06506e-05
7.99043e-07
-9.16259e-05
4.71564e-07
-9.25247e-05
4.21577e-07
-9.33675e-05
2.67531e-06
-9.33879e-05
1.56806e-05
-8.27798e-05
1.63172e-05
-7.07726e-05
3.48223e-05
-0.000109812
3.28612e-05
-7.50009e-05
3.88954e-05
4.94247e-05
2.05274e-05
9.28455e-05
7.32717e-06
9.07168e-05
-3.14215e-06
8.29511e-05
-9.80545e-06
7.62237e-05
-1.09472e-05
6.71931e-05
-1.03838e-05
6.11892e-05
-8.93634e-06
5.61477e-05
5.20011e-05
-7.53199e-06
9.57556e-08
-8.7347e-05
1.82207e-07
-8.76169e-05
2.57717e-07
-8.81101e-05
3.02781e-07
-8.8826e-05
3.13724e-07
-8.96951e-05
2.95704e-07
-9.06326e-05
2.33378e-07
-9.15636e-05
1.05647e-07
-9.2397e-05
-3.66929e-07
-9.2895e-05
-5.06694e-07
-9.32481e-05
7.03883e-06
-9.03253e-05
3.33094e-05
-9.70432e-05
3.34204e-05
-0.000109923
3.69496e-05
-7.85301e-05
4.24834e-05
4.38909e-05
6.01319e-06
0.000129315
-9.70927e-06
0.00010644
-1.66938e-05
8.99353e-05
-1.70361e-05
7.65662e-05
-1.72957e-05
6.74531e-05
-1.60222e-05
5.99159e-05
-1.3953e-05
5.40788e-05
4.94157e-05
-1.13674e-05
4.51303e-08
-8.73921e-05
8.05377e-08
-8.76522e-05
1.20363e-07
-8.81498e-05
1.65417e-07
-8.8871e-05
2.08947e-07
-8.97386e-05
2.58548e-07
-9.06822e-05
3.20941e-07
-9.16259e-05
4.26107e-07
-9.25022e-05
7.13088e-07
-9.31823e-05
2.7466e-06
-9.52815e-05
1.4876e-05
-0.000102455
3.86942e-05
-0.000120862
8.23929e-05
-0.000153622
5.11713e-05
-4.73082e-05
2.77359e-05
6.73262e-05
-1.23732e-05
0.000169424
-2.87585e-05
0.000122825
-3.03911e-05
9.15682e-05
-2.83811e-05
7.45566e-05
-2.47518e-05
6.38242e-05
-2.10897e-05
5.6254e-05
-1.75394e-05
5.05287e-05
4.57608e-05
-1.38844e-05
-4.72704e-06
-8.2665e-05
-9.59885e-06
-8.27813e-05
-1.50539e-05
-8.2695e-05
-2.07861e-05
-8.3139e-05
-2.66365e-05
-8.38886e-05
-3.24132e-05
-8.49059e-05
-3.774e-05
-8.62993e-05
-4.60106e-05
-8.42323e-05
-4.99279e-05
-8.92653e-05
-5.01858e-05
-9.50237e-05
-5.55996e-05
-9.70412e-05
-4.43264e-05
-0.000132136
-5.57102e-05
-0.000142239
-8.41252e-05
-1.88931e-05
-8.70835e-05
7.02839e-05
-5.97695e-05
0.000142111
-3.90429e-05
0.000102099
-2.99607e-05
8.2486e-05
-2.43223e-05
6.89185e-05
-2.02456e-05
5.97478e-05
-1.7021e-05
5.30296e-05
-1.44271e-05
4.79349e-05
4.37337e-05
-1.23999e-05
-6.45081e-06
-7.62142e-05
-1.2193e-05
-7.70394e-05
-1.73485e-05
-7.75399e-05
-2.23123e-05
-7.81758e-05
-2.74662e-05
-7.87353e-05
-3.57807e-05
-7.6592e-05
-5.1456e-05
-7.06252e-05
-6.44114e-05
-7.12784e-05
-5.36904e-05
-9.99868e-05
-4.07383e-05
-0.000107977
-5.96721e-05
-7.81083e-05
-0.000100741
-9.10669e-05
-0.00018161
-6.137e-05
-0.000188401
-1.21029e-05
-0.000149624
3.15056e-05
-8.02555e-05
7.27425e-05
-5.30217e-05
7.48649e-05
-3.86681e-05
6.81325e-05
-2.99733e-05
6.02237e-05
-2.40801e-05
5.38547e-05
-1.97715e-05
4.87211e-05
-1.64089e-05
4.45725e-05
4.10359e-05
-1.37111e-05
-5.38762e-06
-7.08271e-05
-1.1153e-05
-7.12741e-05
-1.73125e-05
-7.13808e-05
-2.47489e-05
-7.07398e-05
-3.4654e-05
-6.88306e-05
-4.54085e-05
-6.58377e-05
-4.35595e-05
-7.24748e-05
-3.2176e-05
-8.26622e-05
-4.31981e-05
-8.89656e-05
-9.01743e-05
-6.10018e-05
-0.000102535
-6.57486e-05
-0.00012999
-6.36132e-05
-0.000151912
-3.94502e-05
-0.000145594
-1.8422e-05
-0.000123792
9.70485e-06
-8.2983e-05
3.19332e-05
-5.77173e-05
4.95989e-05
-4.30383e-05
5.34534e-05
-3.36572e-05
5.08425e-05
-2.69303e-05
4.71278e-05
-2.19815e-05
4.37723e-05
-1.81596e-05
4.07506e-05
3.79687e-05
-1.50924e-05
-4.73885e-06
-6.60883e-05
-9.70255e-06
-6.63104e-05
-1.50921e-05
-6.59914e-05
-2.01832e-05
-6.56489e-05
-2.13511e-05
-6.7663e-05
-2.42034e-05
-6.29859e-05
-2.6671e-05
-7.00081e-05
-3.48999e-05
-7.44341e-05
-4.60014e-05
-7.78647e-05
-5.39707e-05
-5.30328e-05
-6.77845e-05
-5.1936e-05
-9.60216e-05
-3.53766e-05
-0.000108259
-2.72126e-05
-0.000112447
-1.42336e-05
-0.000101189
-1.55444e-06
-8.2213e-05
1.29573e-05
-6.25673e-05
2.99529e-05
-4.49713e-05
3.58573e-05
-3.55864e-05
4.14575e-05
-2.86908e-05
4.02321e-05
-2.35234e-05
3.86049e-05
-1.94538e-05
3.66811e-05
3.47068e-05
-1.61919e-05
-4.24168e-06
-6.18463e-05
-8.424e-06
-6.21281e-05
-1.23511e-05
-6.20643e-05
-1.64425e-05
-6.15575e-05
-2.33229e-05
-6.07829e-05
-2.16034e-05
-6.47058e-05
-2.61231e-05
-6.54891e-05
-3.48675e-05
-6.56906e-05
-5.06265e-05
-6.21061e-05
-5.71768e-05
-4.64829e-05
-7.5232e-05
-3.38813e-05
-8.29076e-05
-2.77011e-05
-8.84094e-05
-2.17114e-05
-8.88731e-05
-1.37706e-05
-8.48111e-05
-5.61662e-06
-7.53508e-05
3.49666e-06
-6.08103e-05
1.54121e-05
-5.07206e-05
2.57673e-05
-3.87768e-05
2.95136e-05
-3.01176e-05
3.15729e-05
-2.46811e-05
3.31684e-05
-2.03893e-05
3.23892e-05
3.13433e-05
-1.70258e-05
-3.61569e-06
-5.82306e-05
-7.23763e-06
-5.85063e-05
-1.08695e-05
-5.84325e-05
-1.42654e-05
-5.81616e-05
-1.68644e-05
-5.8184e-05
-2.19448e-05
-5.96258e-05
-2.83051e-05
-5.91293e-05
-3.8342e-05
-5.56544e-05
-5.31294e-05
-4.73196e-05
-6.35026e-05
-3.61107e-05
-6.8251e-05
-2.91337e-05
-7.18039e-05
-2.41487e-05
-7.49061e-05
-1.86098e-05
-7.32722e-05
-1.54052e-05
-7.06366e-05
-8.25267e-06
-6.67725e-05
-3.67832e-07
-5.75869e-05
6.22615e-06
-4.8166e-05
1.63461e-05
-4.09852e-05
2.23327e-05
-3.39128e-05
2.45004e-05
-2.68001e-05
2.60556e-05
-2.1509e-05
2.70981e-05
2.76958e-05
-1.78615e-05
-3.27412e-06
-5.49566e-05
-6.62202e-06
-5.51587e-05
-1.00502e-05
-5.50046e-05
-1.34103e-05
-5.48018e-05
-1.67598e-05
-5.48347e-05
-2.29236e-05
-5.34626e-05
-3.13278e-05
-5.07257e-05
-4.08787e-05
-4.6104e-05
-5.02213e-05
-3.79779e-05
-5.58085e-05
-3.05242e-05
-5.90755e-05
-2.58674e-05
-6.18386e-05
-2.13862e-05
-6.39856e-05
-1.64634e-05
-6.20455e-05
-1.7346e-05
-5.99966e-05
-1.03021e-05
-5.78883e-05
-2.47649e-06
-5.38277e-05
2.16532e-06
-4.5245e-05
7.76313e-06
-3.87242e-05
1.58118e-05
-3.36861e-05
1.94622e-05
-2.86545e-05
2.10239e-05
-2.37804e-05
2.22239e-05
2.32901e-05
-1.93747e-05
-3.13567e-06
-5.18212e-05
-6.37469e-06
-5.19199e-05
-9.759e-06
-5.16205e-05
-1.34976e-05
-5.10634e-05
-1.85406e-05
-4.97921e-05
-2.49437e-05
-4.70597e-05
-3.17397e-05
-4.39299e-05
-3.90682e-05
-3.87759e-05
-4.53749e-05
-3.16715e-05
-4.87408e-05
-2.71587e-05
-5.1205e-05
-2.34038e-05
-5.30549e-05
-1.95368e-05
-5.41852e-05
-1.53335e-05
-5.37567e-05
-1.77749e-05
-5.27703e-05
-1.12889e-05
-5.00168e-05
-5.23038e-06
-4.77464e-05
-1.05313e-07
-4.36802e-05
3.69684e-06
-3.68907e-05
9.02212e-06
-3.1961e-05
1.45324e-05
-2.79932e-05
1.70561e-05
-2.4258e-05
1.84887e-05
1.96265e-05
-2.05944e-05
-3.19786e-06
-4.86235e-05
-6.55989e-06
-4.8558e-05
-1.02545e-05
-4.7926e-05
-1.45676e-05
-4.67503e-05
-1.96196e-05
-4.47401e-05
-2.47669e-05
-4.19125e-05
-3.04368e-05
-3.82601e-05
-3.66134e-05
-3.25995e-05
-4.01308e-05
-2.81542e-05
-4.25115e-05
-2.47784e-05
-4.43413e-05
-2.15744e-05
-4.5632e-05
-1.82464e-05
-4.62385e-05
-1.47273e-05
-4.73091e-05
-1.67046e-05
-4.58074e-05
-1.27909e-05
-4.40078e-05
-7.03023e-06
-4.21559e-05
-1.95733e-06
-3.97448e-05
1.28554e-06
-3.54998e-05
4.77707e-06
-3.05774e-05
9.60999e-06
-2.68021e-05
1.32806e-05
-2.35826e-05
1.52691e-05
1.6665e-05
-2.06211e-05
-3.35197e-06
-4.52715e-05
-6.87115e-06
-4.50388e-05
-1.06813e-05
-4.41159e-05
-1.48506e-05
-4.2581e-05
-1.92297e-05
-4.0361e-05
-2.37865e-05
-3.73558e-05
-2.90125e-05
-3.30341e-05
-3.27663e-05
-2.88457e-05
-3.52031e-05
-2.57175e-05
-3.70535e-05
-2.29281e-05
-3.84789e-05
-2.01493e-05
-3.94445e-05
-1.72811e-05
-3.98103e-05
-1.43617e-05
-4.12118e-05
-1.53032e-05
-4.04258e-05
-1.3577e-05
-3.86905e-05
-8.76562e-06
-3.70629e-05
-3.58508e-06
-3.55094e-05
-2.68022e-07
-3.31454e-05
2.413e-06
-2.92736e-05
5.73815e-06
-2.56787e-05
9.68564e-06
-2.27255e-05
1.23159e-05
1.40468e-05
-2.01073e-05
-3.40661e-06
-4.18649e-05
-6.92209e-06
-4.15233e-05
-1.05872e-05
-4.04507e-05
-1.43976e-05
-3.87706e-05
-1.83802e-05
-3.63784e-05
-2.27465e-05
-3.29895e-05
-2.6484e-05
-2.92965e-05
-2.89353e-05
-2.63944e-05
-3.07862e-05
-2.38667e-05
-3.22749e-05
-2.14395e-05
-3.34375e-05
-1.89868e-05
-3.42387e-05
-1.648e-05
-3.45943e-05
-1.40063e-05
-3.56173e-05
-1.42804e-05
-3.53286e-05
-1.38658e-05
-3.43579e-05
-9.73644e-06
-3.25905e-05
-5.35257e-06
-3.13856e-05
-1.47297e-06
-2.99287e-05
9.55989e-07
-2.76905e-05
3.49994e-06
-2.45648e-05
6.55991e-06
-2.17936e-05
9.54469e-06
1.16275e-05
-1.93743e-05
-3.33066e-06
-3.85343e-05
-6.71708e-06
-3.81369e-05
-1.01765e-05
-3.69914e-05
-1.3764e-05
-3.5183e-05
-1.76024e-05
-3.254e-05
-2.1075e-05
-2.9517e-05
-2.34841e-05
-2.68874e-05
-2.53194e-05
-2.45591e-05
-2.68179e-05
-2.23682e-05
-2.80536e-05
-2.02039e-05
-2.90288e-05
-1.80116e-05
-2.97192e-05
-1.57897e-05
-3.00771e-05
-1.36485e-05
-3.07109e-05
-1.36467e-05
-3.07747e-05
-1.3802e-05
-3.01549e-05
-1.03562e-05
-2.88485e-05
-6.65901e-06
-2.77374e-05
-2.58419e-06
-2.66662e-05
-1.15182e-07
-2.51911e-05
2.02481e-06
-2.30743e-05
4.44312e-06
-2.06557e-05
7.12601e-06
9.40357e-06
-1.84317e-05
-3.19063e-06
-3.53437e-05
-6.42587e-06
-3.49017e-05
-9.75617e-06
-3.36611e-05
-1.32106e-05
-3.17286e-05
-1.63148e-05
-2.94358e-05
-1.86552e-05
-2.71767e-05
-2.04811e-05
-2.50615e-05
-2.19812e-05
-2.30591e-05
-2.3241e-05
-2.11083e-05
-2.42871e-05
-1.91578e-05
-2.51147e-05
-1.71841e-05
-2.57032e-05
-1.52012e-05
-2.60073e-05
-1.33444e-05
-2.65025e-05
-1.31515e-05
-2.67421e-05
-1.35625e-05
-2.63598e-05
-1.07385e-05
-2.55593e-05
-7.45962e-06
-2.43913e-05
-3.75216e-06
-2.35098e-05
-9.96726e-07
-2.24743e-05
9.89337e-07
-2.10587e-05
3.02745e-06
-1.91861e-05
5.25337e-06
7.4542e-06
-1.72367e-05
-3.06469e-06
-3.2279e-05
-6.18528e-06
-3.17812e-05
-9.26955e-06
-3.05769e-05
-1.20278e-05
-2.89704e-05
-1.42928e-05
-2.71708e-05
-1.61288e-05
-2.53406e-05
-1.76466e-05
-2.35438e-05
-1.89248e-05
-2.17809e-05
-2.00053e-05
-2.00278e-05
-2.09007e-05
-1.82625e-05
-2.16059e-05
-1.64789e-05
-2.21034e-05
-1.47038e-05
-2.23617e-05
-1.30861e-05
-2.27863e-05
-1.27269e-05
-2.31239e-05
-1.32249e-05
-2.29588e-05
-1.09036e-05
-2.24185e-05
-7.99991e-06
-2.13175e-05
-4.85324e-06
-2.05936e-05
-1.72065e-06
-1.98094e-05
2.05179e-07
-1.87775e-05
1.99551e-06
-1.74166e-05
3.89246e-06
5.83547e-06
-1.57978e-05
-2.84576e-06
-2.94333e-05
-5.6008e-06
-2.90261e-05
-8.12413e-06
-2.80535e-05
-1.03217e-05
-2.67728e-05
-1.21737e-05
-2.53189e-05
-1.37236e-05
-2.37908e-05
-1.5029e-05
-2.22383e-05
-1.61356e-05
-2.06744e-05
-1.70688e-05
-1.90947e-05
-1.78372e-05
-1.74941e-05
-1.84377e-05
-1.58784e-05
-1.88576e-05
-1.42838e-05
-1.90876e-05
-1.28562e-05
-1.9458e-05
-1.23566e-05
-1.98584e-05
-1.28245e-05
-1.98187e-05
-1.09433e-05
-1.94167e-05
-8.40198e-06
-1.86273e-05
-5.64267e-06
-1.78974e-05
-2.45051e-06
-1.72604e-05
-4.3187e-07
-1.6445e-05
1.18012e-06
-1.54174e-05
2.86489e-06
4.58428e-06
-1.41662e-05
-2.40575e-06
-2.70275e-05
-4.70137e-06
-2.67305e-05
-6.78662e-06
-2.59683e-05
-8.61309e-06
-2.49463e-05
-1.01776e-05
-2.37544e-05
-1.15065e-05
-2.24618e-05
-1.2635e-05
-2.11098e-05
-1.35919e-05
-1.97175e-05
-1.43949e-05
-1.82917e-05
-1.5051e-05
-1.6838e-05
-1.55592e-05
-1.53702e-05
-1.59139e-05
-1.39292e-05
-1.6125e-05
-1.26451e-05
-1.6446e-05
-1.20356e-05
-1.68667e-05
-1.24038e-05
-1.69191e-05
-1.08909e-05
-1.66788e-05
-8.64221e-06
-1.61818e-05
-6.13974e-06
-1.53267e-05
-3.30558e-06
-1.47863e-05
-9.7225e-07
-1.41966e-05
5.90485e-07
-1.34198e-05
2.08805e-06
3.62394e-06
-1.24594e-05
-1.9518e-06
-2.50757e-05
-3.81943e-06
-2.48628e-05
-5.52847e-06
-2.42592e-05
-7.04355e-06
-2.34312e-05
-8.35903e-06
-2.24389e-05
-9.48853e-06
-2.13323e-05
-1.04524e-05
-2.01459e-05
-1.1269e-05
-1.89009e-05
-1.19505e-05
-1.76102e-05
-1.25028e-05
-1.62856e-05
-1.29272e-05
-1.49459e-05
-1.32242e-05
-1.36321e-05
-1.34158e-05
-1.24535e-05
-1.36884e-05
-1.1763e-05
-1.41051e-05
-1.19872e-05
-1.42218e-05
-1.07742e-05
-1.40761e-05
-8.78791e-06
-1.37196e-05
-6.49628e-06
-1.30251e-05
-4.00006e-06
-1.25437e-05
-1.45357e-06
-1.20622e-05
1.08965e-07
-1.14565e-05
1.48232e-06
2.88759e-06
-1.07201e-05
-1.5439e-06
-2.35318e-05
-3.02967e-06
-2.3377e-05
-4.40282e-06
-2.2886e-05
-5.63518e-06
-2.21988e-05
-6.71804e-06
-2.1356e-05
-7.65601e-06
-2.03943e-05
-8.45961e-06
-1.93423e-05
-9.13957e-06
-1.82209e-05
-9.70389e-06
-1.70458e-05
-1.01572e-05
-1.58323e-05
-1.0502e-05
-1.46011e-05
-1.07436e-05
-1.33905e-05
-1.09087e-05
-1.22884e-05
-1.11328e-05
-1.15389e-05
-1.15273e-05
-1.15926e-05
-1.16885e-05
-1.0613e-05
-1.16252e-05
-8.85114e-06
-1.13663e-05
-6.75522e-06
-1.08688e-05
-4.49758e-06
-1.04322e-05
-1.89013e-06