/*--------------------------------*- C++ -*----------------------------------*\
| =========                 |                                                 |
| \\      /  F ield         | foam-extend: Open Source CFD                    |
|  \\    /   O peration     | Version:     4.1                                |
|   \\  /    A nd           | Web:         http://www.foam-extend.org         |
|    \\/     M anipulation  |                                                 |
\*---------------------------------------------------------------------------*/
FoamFile
{
    version     2.0;
    format      ascii;
    class       volScalarField;
    location    "0.4";
    object      alpha1;
}
// * * * * * * * * * * * * * * * * * * * * * * * * * * * * * * * * * * * * * //

dimensions      [0 0 0 0 0 0 0];

internalField   nonuniform List<scalar> 
2268
(
1
1
1
1
1
1
1
1
1
1
1
1
1
1
1
1
1
1
1
1
1
1
0.999677
1
1
1
1
1
1
1
1
1
1
0.999942
1
1
1
1
1
1
1
1
1
1
1
0.999686
1
1
1
1
1
1
1
1
0.999901
0.999214
0.999294
0.999553
0.999846
1
1
1
1
1
1
1
1
1
0.999707
1
1
0.999896
1
0.999917
1
1
0.999653
0.99838
0.997427
0.997781
0.998396
0.999035
0.999414
0.99963
0.999712
0.999819
0.999983
1
1
1
1
0.999747
0.999227
0.998975
0.998684
0.998853
0.998548
0.998655
0.998439
0.99718
0.994615
0.993715
0.994508
0.995702
0.996967
0.997814
0.998428
0.998771
0.999055
0.999417
0.999882
1
1
1
0.999814
0.996632
0.996062
0.995464
0.995639
0.994867
0.994782
0.993981
0.990892
0.987109
0.986375
0.987707
0.989791
0.992235
0.994073
0.99564
0.996735
0.997479
0.998176
0.999006
0.99994
1
1
0.999898
0.990482
0.989361
0.988282
0.988206
0.986558
0.985724
0.983685
0.977638
0.972913
0.972112
0.974088
0.977479
0.982222
0.986119
0.989755
0.992675
0.994567
0.995806
0.997151
0.998757
0.99991
1
0.999932
0.977553
0.975573
0.973772
0.972638
0.969595
0.96649
0.962299
0.953076
0.946642
0.945011
0.947422
0.952929
0.962256
0.970326
0.97815
0.984962
0.98949
0.991674
0.993701
0.996234
0.998409
0.99992
0.999827
0.0127521
0.0163486
0.0181995
0.0209762
0.0249067
0.0286891
0.0324038
0.0370292
0.0425154
0.050432
0.0610105
0.0741312
0.0865119
0.102431
0.121803
0.160352
0.177435
0.188748
0.196861
0.0119481
0.0138017
0.0108414
0.0103838
0.0135909
0.0181923
0.0207185
0.0243423
0.0269682
0.0294928
0.0333256
0.0424381
0.0524294
0.0666196
0.0847882
0.139142
0.167627
0.189452
0.215395
0.0108967
0.0111425
0.00597636
0.0043557
0.00695347
0.0100942
0.0111972
0.0159488
0.019546
0.0206974
0.0195534
0.0235263
0.0381525
0.0484652
0.0535237
0.0962331
0.134508
0.175633
0.230859
0.0102188
0.00963705
0.00519344
0.00218712
0.0027049
0.00369863
0.00398591
0.00893865
0.01723
0.0225139
0.0232779
0.02357
0.0459634
0.0619695
0.0464836
0.0518584
0.0836662
0.144478
0.241598
0.00853868
0.00703229
0.0045326
0.00208358
0.000839444
0.000695154
0.00114066
0.00425505
0.0122594
0.0244799
0.0344904
0.040875
0.0738655
0.105733
0.0771296
0.0289438
0.0413849
0.104082
0.251719
0.00282334
0.0028735
0.00357253
0.0035708
0.0022554
0.000535179
0.000961208
0.00223699
0.00570834
0.017876
0.0384523
0.0633117
0.106367
0.142068
0.11609
0.036007
0.0206794
0.0721667
0.263458
0.0160693
0.0139967
0.0189226
0.0151575
0.00896089
0.00197888
0.00152644
0.00161866
0.00145927
0.00849402
0.0301323
0.0699672
0.12734
0.157682
0.138683
0.0622522
0.0146722
0.0489229
0.275661
0.151227
0.0631714
0.0667767
0.0349196
0.0138088
0.00423806
0.00275288
0.00188667
0.000227757
0.00228455
0.0186042
0.0623009
0.132358
0.159898
0.144966
0.0880377
0.0206104
0.0395351
0.288074
0.939366
0.935402
0.931913
0.92613
0.920475
0.908744
0.900941
0.88561
0.873753
0.868599
0.87072
0.882078
0.904841
0.925178
0.944956
0.963173
0.976199
0.981289
0.984868
0.989251
0.993867
0.997563
0.999435
0.801124
0.792081
0.784073
0.755665
0.750354
0.717591
0.701143
0.665825
0.635926
0.618654
0.615082
0.644185
0.705494
0.764624
0.821255
0.87898
0.927925
0.948757
0.960525
0.972546
0.982129
0.988841
0.99555
0.434871
0.424434
0.414734
0.378125
0.372527
0.335816
0.312923
0.276167
0.249
0.23135
0.227981
0.250154
0.302103
0.369172
0.456651
0.584358
0.740631
0.837441
0.892041
0.930331
0.950124
0.962906
0.980051
0.134097
0.131577
0.129531
0.11906
0.116136
0.101164
0.0911168
0.0768322
0.0678056
0.0619258
0.0639473
0.0742785
0.0919046
0.111761
0.140253
0.19976
0.335229
0.524461
0.688895
0.805835
0.861299
0.884491
0.917926
0.0395124
0.0390958
0.0390034
0.0367072
0.0353816
0.0304692
0.0268186
0.0220021
0.0192395
0.0174201
0.0191523
0.0224056
0.0265846
0.0312187
0.0373168
0.0502672
0.095181
0.196581
0.352176
0.532069
0.666824
0.719615
0.749756
0.0125586
0.0124156
0.0123673
0.0117574
0.0112116
0.00959942
0.00830072
0.00669224
0.00581258
0.00526668
0.00611598
0.00688733
0.00733449
0.00814414
0.0087703
0.0109519
0.0266759
0.0791487
0.175332
0.290744
0.446295
0.425322
0.365096
0.00392624
0.00384638
0.00373839
0.00351724
0.00331349
0.00276431
0.00235172
0.00187978
0.00157323
0.00139856
0.00160568
0.00163195
0.0016419
0.00178857
0.00193757
0.00289458
0.0106575
0.0362462
0.0784995
0.109653
0.186727
0.159549
0.12768
0.0010188
0.000975917
0.000890518
0.000810791
0.00071842
0.000567512
0.00046134
0.000361292
0.000225103
0.000122683
8.67413e-05
6.7459e-05
0.000163971
0.000279874
0.000379072
0.000896558
0.00376357
0.0134821
0.0298672
0.0298642
0.041051
0.0389656
0.0341332
0.000122656
0.000101198
5.96976e-05
3.74209e-05
7.88213e-06
0
0
0
0
0
0
0
0
0
0
0.000268858
0.00171195
0.00605015
0.0119981
0.00866252
0.00506944
0.00536508
0.00588765
0
0
0
0
0
0
0
0
0
0
0
0
0
0
0
5.56494e-05
0.000693203
0.00224847
0.00395502
0.00245821
0
0
1.89592e-05
0
0
0
0
0
0
0
0
0
0
0
0
0
0
0
0
6.09e-05
0.000320414
0.000449904
0
0
0
0
0
0
0
0
0
0
0
0
0
0
0
0
0
0
0
0
0
0
0
0
0
0
0
0
0
0
0
0
0
0
0
0
0
0
0
0
0
0
0
0
0
0
0
0
0
0
0
0
0
0
2.2157e-07
2.06801e-06
0
0
0
0
0
0
0
0
0
0
0
0
0
0
0
0
0
2.08873e-07
2.8872e-07
6.06359e-07
4.15386e-07
1.15092e-06
2.0484e-06
1.95563e-06
0
0
0
0
0
0
0
0
0
0
0
0
0
1.98351e-07
0
0
6.67039e-07
5.26627e-07
5.433e-07
5.77706e-07
7.04189e-07
1.05673e-06
1.61412e-06
1.79804e-06
1.26513e-06
3.83415e-07
0
0
0
0
0
1.81058e-08
1.18281e-07
0
3.34723e-07
4.85196e-07
5.18596e-07
2.76297e-07
1.32643e-07
1.73918e-07
1.19419e-07
1.46956e-07
1.94434e-07
2.19786e-07
3.34391e-07
6.66207e-07
1.00488e-06
1.01128e-06
8.31982e-07
4.59544e-07
0
0
0
3.84396e-08
2.09437e-07
2.02447e-07
1.21332e-07
1.02585e-07
9.2943e-08
1.00392e-07
9.52754e-08
6.85705e-08
7.66352e-09
0
1.07562e-08
2.93088e-08
3.35737e-08
5.83586e-08
1.6301e-07
3.13274e-07
3.22461e-07
3.02496e-07
2.94443e-07
2.70315e-07
2.0729e-07
1.33767e-07
1.04804e-07
7.41917e-08
4.96467e-08
2.62172e-08
1.22323e-08
5.27358e-09
5.49157e-09
1.20246e-08
1.62982e-08
0
0
0
0
0
0
1.59823e-08
5.34743e-08
4.94827e-08
4.65454e-08
7.5889e-08
1.1044e-07
1.01976e-07
6.31295e-08
2.41553e-08
9.89825e-09
4.65813e-09
1.35459e-09
0
0
0
0
1.32607e-09
0
0
0
0
0
0
0
0
0
0
7.30668e-09
2.36155e-08
2.35916e-08
1.13347e-08
9.76426e-10
0
0
0
0
0
0
0
1.57269e-10
0
0
0
0
0
0
0
0
0
0
0
5.28056e-10
1.75255e-09
0
0
0
0
0
0
0
0
0
7.95684e-10
0
3.30577e-11
4.07168e-11
0
0
0
0
0
0
0
0
0
0
0
0
0
0
0
0
0
0
1.17013e-10
1.28605e-09
0
4.11848e-11
7.61728e-11
6.52199e-11
3.00581e-11
0
0
0
0
0
0
0
0
0
0
5.80092e-12
1.1413e-11
5.71798e-12
0
0
0
3.38125e-10
2.20676e-09
6.99907e-12
1.78669e-11
2.76751e-11
3.98861e-11
5.94237e-11
4.44764e-11
0
0
0
5.22614e-11
0
0
0
0
1.36414e-11
1.3727e-11
6.40221e-12
0
0
0
0
5.19264e-10
3.2792e-09
4.63601e-12
3.45846e-12
4.35479e-12
8.90693e-12
1.86463e-11
2.63611e-11
3.11767e-11
2.24086e-11
2.5191e-11
3.56083e-11
2.47765e-11
0
1.08241e-11
1.15302e-11
6.26349e-12
3.56787e-12
2.10554e-12
0
0
0
0
2.49659e-10
3.03412e-09
5.50004e-13
0
0
0
1.72723e-12
4.42435e-12
8.20038e-12
8.6236e-12
8.27161e-12
8.471e-12
9.24966e-12
7.29183e-12
6.97581e-12
3.44175e-12
7.66442e-13
7.86649e-13
1.57324e-12
0
0
0
0
5.39183e-11
2.79069e-09
0
0
0
0
0
0
4.43146e-13
8.20843e-13
6.86062e-13
4.46088e-13
9.41025e-13
1.17634e-12
1.03556e-12
1.95899e-13
0
7.21589e-13
2.18886e-12
0
0
0
0
0
1.80042e-09
0
0
0
0
0
0
0
0
0
0
0
0
0
0
8.97615e-14
1.19227e-12
2.50971e-12
0
0
0
0
0
1.15261e-09
0
3.21965e-15
5.10703e-15
0
0
0
0
0
0
0
0
0
0
0
4.27491e-13
2.32042e-12
3.01847e-12
0
0
0
6.2387e-11
4.10387e-10
1.75412e-09
1.16573e-14
1.38778e-14
1.44329e-14
1.27121e-14
1.03806e-14
6.88338e-15
6.66134e-16
0
0
0
0
0
0
3.78031e-14
9.87377e-13
4.09989e-12
2.79621e-12
0
0
0
6.72965e-10
1.95087e-09
4.78389e-09
2.22045e-15
4.55191e-15
5.10703e-15
3.83027e-15
3.38618e-15
3.4972e-15
4.21885e-15
6.88338e-15
5.27356e-15
7.27196e-15
5.4956e-15
0
0
1.52267e-13
1.97214e-12
6.47704e-12
0
0
0
0
1.81599e-09
5.60392e-09
1.24997e-08
2.16493e-15
5.71765e-15
5.93969e-15
5.32907e-15
8.32667e-16
2.22045e-15
5.16254e-15
2.27596e-15
3.55271e-15
6.82787e-15
1.66533e-15
0
0
2.68063e-13
3.08786e-12
9.01612e-12
0
0
0
0
3.28341e-09
1.04092e-08
1.86566e-08
1.33227e-15
5.44009e-15
2.498e-15
3.21965e-15
3.16414e-15
2.88658e-15
5.4956e-15
3.83027e-15
6.71685e-15
6.66134e-15
2.22045e-16
0
0
4.21829e-13
4.31705e-12
1.0955e-11
0
0
0
0
6.81633e-09
1.93202e-08
2.23026e-08
4.27436e-15
3.60822e-15
3.05311e-15
1.77636e-15
2.77556e-15
4.66294e-15
4.27436e-15
6.32827e-15
6.71685e-15
7.38298e-15
1.60982e-15
0
0
7.22089e-13
6.07331e-12
1.27808e-11
0
0
0
7.09453e-11
1.0391e-08
2.7287e-08
1.03095e-08
2.498e-15
4.4964e-15
4.21885e-15
4.32987e-15
2.16493e-15
2.94209e-15
4.21885e-15
6.32827e-15
6.93889e-15
7.77156e-15
0
0
0
8.51375e-13
7.02749e-12
1.30312e-11
0
0
0
5.54685e-10
1.52504e-08
3.13329e-08
0
1.77636e-15
4.996e-15
5.16254e-15
4.32987e-15
3.05311e-15
3.9968e-15
4.55191e-15
8.71525e-15
7.38298e-15
6.4948e-15
0
0
0
1.00736e-12
7.90262e-12
1.12807e-11
0
0
0
1.73095e-09
2.07512e-08
3.43091e-08
0
3.83027e-15
4.60743e-15
6.38378e-15
3.38618e-15
3.55271e-15
1.88738e-15
3.83027e-15
8.21565e-15
6.66134e-15
6.21725e-15
0
0
0
1.43652e-12
9.67709e-12
7.41818e-12
0
0
0
4.35758e-09
2.99667e-08
3.25101e-08
0
3.71925e-15
4.10783e-15
5.60663e-15
4.60743e-15
3.16414e-15
3.44169e-15
5.44009e-15
8.71525e-15
6.60583e-15
4.71845e-15
0
0
0
1.80961e-12
1.14441e-11
4.63157e-12
0
0
0
7.28048e-09
3.95187e-08
2.23273e-08
0
2.05391e-15
2.60902e-15
4.10783e-15
3.16414e-15
3.94129e-15
4.94049e-15
2.9976e-15
8.10463e-15
6.21725e-15
4.94049e-15
0
0
0
2.15611e-12
1.16101e-11
0
0
0
0
1.09363e-08
4.77573e-08
1.85345e-09
0
1.9984e-15
2.33147e-15
2.77556e-15
2.16493e-15
3.66374e-15
5.44009e-15
6.16174e-15
9.10383e-15
8.04912e-15
5.32907e-15
0
0
0
2.286e-12
1.14625e-11
0
0
0
2.09345e-10
1.52689e-08
5.67423e-08
0
0
4.10783e-15
3.27516e-15
2.05391e-15
3.83027e-15
2.72005e-15
4.38538e-15
5.4956e-15
8.65974e-15
9.99201e-15
6.99441e-15
0
0
0
2.29133e-12
1.06764e-11
0
0
0
1.3279e-09
1.92277e-08
6.546e-08
0
0
3.9968e-15
2.77556e-15
7.21645e-16
4.94049e-15
1.94289e-15
6.82787e-15
6.60583e-15
8.77076e-15
9.71445e-15
3.4972e-15
0
0
0
1.85152e-12
9.72206e-12
0
0
0
2.40273e-09
2.19007e-08
6.9114e-08
0
0
1
1
1
0.948706
1
1
1
1
0.989831
0.99523
1
1
0.938023
0.947396
0.957159
0.96555
0.7809
0.801304
0.820392
0.833337
0.382748
0.405074
0.433935
0.469292
0.123383
0.128723
0.138886
0.157497
0.0376346
0.0402453
0.0417237
0.044269
0.0098889
0.00981554
0.00876517
0.00989137
0.00191517
0.00128683
0.00062276
0.000923441
0
0
0
0
0
0
0
0
0
0
0
0
0
0
0
0
7.88618e-07
9.37239e-07
8.66367e-07
8.05583e-07
2.33292e-07
3.10871e-07
4.12515e-07
5.52187e-07
5.35551e-08
4.63945e-08
4.80258e-08
6.73952e-08
1.61865e-08
1.4584e-08
1.19068e-08
8.99487e-09
3.48193e-09
4.59399e-09
4.70902e-09
2.93663e-09
1.69351e-09
2.46479e-09
2.07347e-09
0
2.35564e-09
2.87119e-09
1.69009e-09
0
3.23488e-09
4.03439e-09
3.1372e-09
0
4.91248e-09
6.13756e-09
5.69769e-09
2.58243e-09
7.38595e-09
9.59457e-09
9.89969e-09
6.83626e-09
8.92551e-09
1.33119e-08
1.56197e-08
1.20941e-08
1.01642e-08
1.62e-08
1.87662e-08
9.66523e-09
9.26169e-09
1.71379e-08
2.38411e-08
2.03368e-08
7.60061e-09
1.59199e-08
2.55082e-08
2.82275e-08
8.19486e-09
1.70723e-08
2.77803e-08
3.08126e-08
1.30299e-08
2.38725e-08
3.63662e-08
3.67886e-08
2.72173e-08
4.1069e-08
4.80821e-08
2.45741e-08
3.55351e-08
5.0475e-08
5.16601e-08
9.07867e-09
3.33698e-08
3.41052e-08
0
0
0
0
0
0
0
0
0
0
0
0
0
0
0
0
0
0
0
0
0
0
0
0
0
0
0
0
0
0
0
0
0
0
0
0
0
0
0.657556
0.177005
0.189389
0.0443705
0.00549918
0.00177465
0.00141352
0.0010637
0
0
0.00653059
0.044953
0.131249
0.14857
0.135964
0.10307
0.0379875
0.0321157
0.306922
0.95148
0.652815
0.564202
0.145842
0.0425382
0.0267913
0.0072388
0
0
0
0
0.0183734
0.115844
0.10955
0.0769963
0.0553977
0.0150974
0.0337899
0.331827
1
0.962725
0.918339
0.656621
0.470901
0.301379
0.124065
0.00249038
0
0
0
0.0375828
0.157526
0.0686858
0.0213321
0.017306
0.00861495
0.070143
0.351476
0.972836
0.97128
0.97509
0.933979
0.847059
0.747319
0.496742
0.0970233
0.00471942
0
0.00985294
0.0889724
0.210239
0.0552151
0.00697651
0.0428394
0.102356
0.278972
0.489222
0.868057
0.880232
0.915128
0.920718
0.912753
0.92126
0.858927
0.579571
0.26661
0.087618
0.0870065
0.192063
0.351161
0.237553
0.0782718
0.111317
0.220705
0.344576
0.499886
0.60901
0.542529
0.664688
0.688269
0.731813
0.796021
0.834082
0.823596
0.717381
0.44178
0.386972
0.447011
0.591187
0.615654
0.555055
0.538534
0.469393
0.395261
0.489749
0.259206
0.230156
0.239801
0.219966
0.256269
0.379616
0.527032
0.618961
0.700518
0.616726
0.627562
0.647924
0.681512
0.728935
0.742488
0.713379
0.573198
0.529174
0.547412
0.0637407
0.0724912
0.0596554
0.0462047
0.0618112
0.115921
0.204259
0.283457
0.509563
0.463519
0.457278
0.47662
0.507999
0.61189
0.700932
0.68795
0.651582
0.598256
0.550654
0.0135381
0.00991275
0.00667701
0.00280349
0.0100407
0.0317735
0.0645551
0.10412
0.191662
0.193016
0.145841
0.186182
0.243993
0.438915
0.636543
0.678559
0.672225
0.55215
0.47174
0.0013925
0
0
0
0.000582185
0.00689113
0.0182564
0.0368086
0.0657676
0.0873692
0.0639885
0.0858593
0.123994
0.223329
0.487167
0.638433
0.666854
0.565573
0.41525
0
0
0
0
0
0.00246466
0.0097184
0.0253085
0.0450084
0.0563533
0.0534353
0.103713
0.186272
0.248106
0.430096
0.612613
0.662924
0.58468
0.38004
0
0
0
0.000106166
0.00184797
0.00712963
0.0163006
0.0269011
0.0362113
0.043384
0.0573852
0.115672
0.227595
0.358316
0.48764
0.629281
0.65769
0.583327
0.355322
0
0
0
0
0.000319698
0.0019174
0.00637576
0.0149087
0.0225461
0.0297951
0.0499828
0.119288
0.239158
0.425585
0.543758
0.613402
0.629887
0.561792
0.328266
0
0
2.69954e-06
0
0
0.000205164
0.00149743
0.00515939
0.00790887
0.0100006
0.018604
0.0485694
0.117778
0.289126
0.464503
0.52527
0.563493
0.518116
0.299412
5.5674e-07
2.74025e-06
3.60355e-06
1.08311e-06
0
0
0.000258594
0.00150651
0.0026561
0.00412355
0.0111131
0.0290307
0.0803845
0.174609
0.323145
0.417293
0.481298
0.466168
0.280383
7.93575e-07
1.05354e-06
1.01832e-06
1.25965e-06
0
0
0
0.000269714
0.000736232
0.00177438
0.00499606
0.0138074
0.0346767
0.0799571
0.207641
0.334867
0.400946
0.414105
0.263218
1.24349e-07
1.3892e-07
5.95631e-08
2.42675e-07
1.05201e-07
0
0
3.15744e-05
0.000192071
0.000619709
0.00228942
0.00728176
0.0189502
0.0499638
0.140322
0.279818
0.349525
0.364781
0.249081
4.42882e-09
0
0
0
0
0
0
3.40096e-06
8.57636e-05
0.000503368
0.00199564
0.00538178
0.0145827
0.035407
0.0910469
0.217741
0.317215
0.32173
0.23688
0
0
0
0
0
0
0
0
3.22789e-05
0.000222236
0.000938124
0.00479341
0.0155203
0.0346966
0.0691135
0.160925
0.287734
0.287876
0.223178
0
0
0
0
1.39701e-07
1.54033e-07
0
0
1.07429e-05
8.12204e-05
0.000368859
0.0028825
0.0128762
0.0305242
0.0584783
0.131863
0.266805
0.26536
0.20858
0
0
0
4.07479e-08
5.31821e-07
1.45881e-06
3.0217e-06
2.21571e-06
1.2316e-06
1.34513e-05
0.000319138
0.00284614
0.00938892
0.0220015
0.0417894
0.0960178
0.244876
0.251659
0.193476
0
0
0
2.01829e-07
1.12222e-06
3.53739e-06
9.04163e-06
1.11662e-05
5.2698e-06
1.69478e-05
0.000495115
0.00361304
0.00730848
0.0140292
0.0281868
0.0691552
0.215324
0.24011
0.180541
0
0
0
2.27336e-07
1.24599e-06
4.53713e-06
1.32752e-05
2.64026e-05
1.4539e-05
2.19922e-05
0.00028505
0.00120513
0.00315999
0.00924568
0.0231048
0.0574314
0.185653
0.228317
0.169317
0
0
0
2.0612e-08
8.71234e-07
4.44973e-06
1.60506e-05
3.88288e-05
3.42856e-05
3.05138e-05
0.000131217
0.00048022
0.00196027
0.00752707
0.0197333
0.0488062
0.154856
0.216572
0.160702
0
0
0
0
0
3.28338e-06
1.32776e-05
3.61289e-05
5.72857e-05
5.92863e-05
0.000168515
0.000846404
0.0031911
0.00833595
0.0179314
0.0370035
0.109156
0.202594
0.153534
0
0
0
0
0
5.12579e-07
1.11589e-05
3.51028e-05
7.03557e-05
0.000124834
0.000332217
0.0011444
0.00345429
0.0087713
0.0185771
0.0315899
0.0752213
0.18599
0.146966
0
0
0
0
0
6.54046e-07
1.79108e-05
4.62596e-05
8.85332e-05
0.000170068
0.000455327
0.00139643
0.00476123
0.0116297
0.0203858
0.0293348
0.0582343
0.167637
0.141656
5.42158e-09
0
0
0
0
0
1.03273e-05
4.39747e-05
0.000110659
0.000255029
0.000732856
0.00217641
0.00593034
0.0126021
0.0207847
0.0277444
0.0487897
0.147979
0.13676
4.43055e-09
0
0
0
0
0
1.36747e-05
5.63969e-05
0.000133984
0.000328816
0.000937983
0.00294982
0.007215
0.0136529
0.0192825
0.0250798
0.0420782
0.12789
0.131687
0
0
0
0
0
0
1.75556e-05
9.36051e-05
0.000186453
0.000417455
0.00105961
0.00292395
0.00696833
0.0136637
0.0190146
0.0236681
0.0379317
0.111116
0.126397
0
0
0
0
0
0
1.2766e-05
6.00286e-05
0.000146279
0.000340212
0.0008592
0.00232207
0.00657894
0.014409
0.0188662
0.0224419
0.0341412
0.0983667
0.12104
0
0
0
0
0
0
1.63295e-06
2.353e-05
9.77517e-05
0.000324492
0.000910073
0.0022753
0.0059774
0.0132182
0.0179018
0.0199406
0.0278642
0.0824809
0.115019
0
0
0
0
0
9.88366e-07
5.0211e-06
2.91319e-05
0.000120565
0.000336968
0.000906436
0.00267907
0.00771697
0.0157185
0.018471
0.0193591
0.0308789
0.0727521
0.10874
0
0
0
0
2.23313e-06
1.06417e-05
1.39038e-05
2.71377e-05
9.11385e-05
0.000332938
0.0011658
0.00388642
0.0101786
0.0175232
0.0188462
0.0179925
0.0248213
0.055798
0.102045
0
0
0
0
4.99578e-06
1.80709e-05
2.90136e-05
3.87758e-05
7.64594e-05
0.000246836
0.000900852
0.00324101
0.00909631
0.0171121
0.0185798
0.0164747
0.0196249
0.0434705
0.0951274
0
0
0
4.17262e-07
1.4158e-05
3.30506e-05
5.96931e-05
6.66106e-05
8.44553e-05
0.00015007
0.00054614
0.00234779
0.00735833
0.0157267
0.017995
0.0157364
0.0153834
0.0378212
0.0887443
0
0
0
8.01324e-06
2.39453e-05
5.16918e-05
9.01829e-05
0.000105903
0.000125209
0.000193046
0.000487981
0.00172329
0.00579042
0.0140238
0.0170865
0.0150964
0.0181855
0.0497287
0.0835118
0
0
3.78409e-06
2.2338e-05
4.68606e-05
8.425e-05
0.000126887
0.000155355
0.000191646
0.00029408
0.000548165
0.00135009
0.00410545
0.0115549
0.0157797
0.0142637
0.0168765
0.0446197
0.0775916
0
0
1.51551e-05
4.93427e-05
8.96381e-05
0.000159458
0.000194159
0.000228477
0.000278829
0.000380502
0.000562874
0.00099627
0.00261916
0.00887834
0.0141671
0.0130322
0.0152507
0.0375156
0.0708658
0
1.34332e-07
2.85619e-05
8.93023e-05
0.000148064
0.000218529
0.000243347
0.000251085
0.000276683
0.000326739
0.000459799
0.000874366
0.00201265
0.00561469
0.0116423
0.0123234
0.0134725
0.0298415
0.0639114
0
4.0585e-06
4.71725e-05
0.000110326
0.000179458
0.000238312
0.000246257
0.000218601
0.000210414
0.000195948
0.000207307
0.000272498
0.000599466
0.00184759
0.00707229
0.0109726
0.0124952
0.0245582
0.0566738
0
5.31981e-06
6.03488e-05
0.000125059
0.000201689
0.00025598
0.000243264
0.000198047
0.000175737
0.000168742
0.000171738
0.000192813
0.000291525
0.000856092
0.00449138
0.00893542
0.0106866
0.0155156
0.0403944
)
;

boundaryField
{
    leftWall
    {
        type            zeroGradient;
    }
    rightWall
    {
        type            zeroGradient;
    }
    lowerWall
    {
        type            zeroGradient;
    }
    atmosphere
    {
        type            inletOutlet;
        inletValue      uniform 0;
        value           nonuniform List<scalar> 
46
(
3.9968e-15
2.77556e-15
7.21645e-16
4.94049e-15
1.94289e-15
6.82787e-15
6.60583e-15
8.77076e-15
9.71445e-15
3.4972e-15
0
0
0
1.85152e-12
9.72206e-12
0
0
0
2.40273e-09
2.19007e-08
6.9114e-08
0
0
0
0
0
0
0
5.31981e-06
6.03488e-05
0.000125059
0.000201689
0.00025598
0.000243264
0.000198047
0.000175737
0.000168742
0.000171738
0.000192813
0.000291525
0.000856092
0.00449138
0.00893542
0.0106866
0.0155156
0.0403944
)
;
    }
    defaultFaces
    {
        type            empty;
    }
}


// ************************************************************************* //
