/*--------------------------------*- C++ -*----------------------------------*\
| =========                 |                                                 |
| \\      /  F ield         | foam-extend: Open Source CFD                    |
|  \\    /   O peration     | Version:     4.1                                |
|   \\  /    A nd           | Web:         http://www.foam-extend.org         |
|    \\/     M anipulation  |                                                 |
\*---------------------------------------------------------------------------*/
FoamFile
{
    version     2.0;
    format      ascii;
    class       volScalarField;
    location    "0.4";
    object      C;
}
// * * * * * * * * * * * * * * * * * * * * * * * * * * * * * * * * * * * * * //

dimensions      [0 0 0 0 0 0 0];

internalField   nonuniform List<scalar> 
2268
(
1.00026
1.00026
1.00028
1.0003
1.00033
1.00037
1.00047
1.00065
1.00072
1.00046
1.00029
1.00031
1.00037
1.00041
1.00043
1.00045
1.00047
1.00048
1.00046
1.0004
1.00031
1.00005
0.999354
1.00039
1.00039
1.00039
1.00044
1.00046
1.00054
1.00068
1.00081
1.00064
0.999999
0.999885
1.00003
1.00024
1.00036
1.0004
1.00041
1.00045
1.00049
1.00052
1.0005
1.00041
1.00011
0.999372
1.00053
1.00048
1.00041
1.00053
1.00051
1.00065
1.0008
1.00071
0.999802
0.998428
0.998588
0.999106
0.999691
1.00002
1.00015
1.00018
1.00026
1.00039
1.00056
1.00069
1.00061
1.00025
0.999413
1.00021
1.00003
0.999793
1.00002
0.999833
1.00005
1.00008
0.999307
0.996759
0.994854
0.995563
0.996791
0.99807
0.998828
0.99926
0.999425
0.999638
0.999966
1.00042
1.00084
1.00088
1.00046
0.999494
0.998454
0.99795
0.997367
0.997707
0.997097
0.99731
0.996878
0.994361
0.989231
0.987431
0.989015
0.991404
0.993935
0.995627
0.996856
0.997543
0.998111
0.998835
0.999765
1.00072
1.0011
1.00072
0.999628
0.993265
0.992124
0.990927
0.991279
0.989735
0.989563
0.987962
0.981784
0.974217
0.972749
0.975414
0.979583
0.984469
0.988147
0.99128
0.993471
0.994957
0.996351
0.998012
0.99988
1.00094
1.00093
0.999796
0.980965
0.978723
0.976564
0.976412
0.973116
0.971449
0.967369
0.955275
0.945825
0.944224
0.948175
0.954958
0.964444
0.972239
0.979511
0.985349
0.989134
0.991612
0.994302
0.997515
0.99982
1.00084
0.999864
0.955105
0.951147
0.947543
0.945276
0.939191
0.932979
0.924597
0.906152
0.893283
0.890021
0.894845
0.905858
0.924512
0.940651
0.956301
0.969923
0.97898
0.983347
0.987402
0.992467
0.996818
0.99984
0.999654
-0.974496
-0.967303
-0.963601
-0.958048
-0.950187
-0.942622
-0.935192
-0.925942
-0.914969
-0.899136
-0.877979
-0.851738
-0.826976
-0.795139
-0.756394
-0.679297
-0.645129
-0.622505
-0.606277
-0.976104
-0.972397
-0.978317
-0.979232
-0.972818
-0.963615
-0.958563
-0.951315
-0.946064
-0.941014
-0.933349
-0.915124
-0.895141
-0.866761
-0.830424
-0.721716
-0.664746
-0.621095
-0.56921
-0.978207
-0.977715
-0.988047
-0.991289
-0.986093
-0.979812
-0.977606
-0.968102
-0.960908
-0.958605
-0.960893
-0.952947
-0.923695
-0.90307
-0.892953
-0.807534
-0.730984
-0.648733
-0.538281
-0.979562
-0.980726
-0.989613
-0.995626
-0.99459
-0.992603
-0.992028
-0.982123
-0.96554
-0.954972
-0.953444
-0.95286
-0.908073
-0.876061
-0.907033
-0.896283
-0.832668
-0.711044
-0.516804
-0.982923
-0.985935
-0.990935
-0.995833
-0.998321
-0.99861
-0.997719
-0.99149
-0.975481
-0.95104
-0.931019
-0.91825
-0.852269
-0.788534
-0.845741
-0.942112
-0.91723
-0.791836
-0.496563
-0.994353
-0.994253
-0.992855
-0.992858
-0.995489
-0.99893
-0.998078
-0.995526
-0.988583
-0.964248
-0.923095
-0.873377
-0.787265
-0.715864
-0.767821
-0.927986
-0.958641
-0.855667
-0.473085
-0.967861
-0.972007
-0.962155
-0.969685
-0.982078
-0.996042
-0.996947
-0.996763
-0.997081
-0.983012
-0.939735
-0.860066
-0.745321
-0.684636
-0.722633
-0.875496
-0.970656
-0.902154
-0.448679
-0.697545
-0.873657
-0.866447
-0.930161
-0.972382
-0.991524
-0.994494
-0.996227
-0.999544
-0.995431
-0.962792
-0.875398
-0.735283
-0.680204
-0.710068
-0.823925
-0.958779
-0.92093
-0.423852
0.878732
0.870805
0.863826
0.852259
0.84095
0.817488
0.801881
0.771221
0.747506
0.737198
0.741441
0.764156
0.809683
0.850356
0.889912
0.926346
0.952398
0.962577
0.969736
0.978502
0.987735
0.995126
0.998869
0.602247
0.584162
0.568146
0.511331
0.500707
0.435183
0.402286
0.331651
0.271852
0.237308
0.230164
0.28837
0.410988
0.529247
0.64251
0.757959
0.85585
0.897513
0.921051
0.945091
0.964259
0.977682
0.9911
-0.130258
-0.151132
-0.170532
-0.243751
-0.254945
-0.328368
-0.374153
-0.447666
-0.501999
-0.537301
-0.544039
-0.499691
-0.395795
-0.261656
-0.086699
0.168716
0.481263
0.674881
0.784083
0.860661
0.900249
0.925812
0.960102
-0.731807
-0.736845
-0.740937
-0.76188
-0.767727
-0.797672
-0.817766
-0.846336
-0.864389
-0.876148
-0.872105
-0.851443
-0.816191
-0.776477
-0.719494
-0.600479
-0.329541
0.0489228
0.37779
0.61167
0.722599
0.768981
0.835852
-0.920975
-0.921808
-0.921993
-0.926586
-0.929237
-0.939062
-0.946363
-0.955996
-0.961521
-0.96516
-0.961695
-0.955189
-0.946831
-0.937563
-0.925366
-0.899466
-0.809638
-0.606839
-0.295647
0.064139
0.333647
0.439229
0.499512
-0.974883
-0.975169
-0.975265
-0.976485
-0.977577
-0.980801
-0.983399
-0.986616
-0.988375
-0.989467
-0.987768
-0.986225
-0.985331
-0.983712
-0.982459
-0.978096
-0.946648
-0.841703
-0.649335
-0.418512
-0.107411
-0.149357
-0.269808
-0.992148
-0.992307
-0.992523
-0.992966
-0.993373
-0.994471
-0.995297
-0.99624
-0.996854
-0.997203
-0.996789
-0.996736
-0.996716
-0.996423
-0.996125
-0.994211
-0.978685
-0.927508
-0.843001
-0.780695
-0.626546
-0.680902
-0.74464
-0.997962
-0.998048
-0.998219
-0.998378
-0.998563
-0.998865
-0.999077
-0.999277
-0.99955
-0.999755
-0.999827
-0.999865
-0.999672
-0.99944
-0.999242
-0.998207
-0.992473
-0.973036
-0.940266
-0.940272
-0.917898
-0.922069
-0.931734
-0.999755
-0.999798
-0.999881
-0.999925
-0.999984
-1.00002
-1.00006
-1.00016
-1.00035
-1.00049
-1.00055
-1.00053
-1.00043
-1.00033
-1.00021
-0.999462
-0.996576
-0.9879
-0.976004
-0.982675
-0.989861
-0.98927
-0.988225
-1.00019
-1.00021
-1.00022
-1.00023
-1.00021
-1.00019
-1.00021
-1.00033
-1.0005
-1.0006
-1.00063
-1.00062
-1.00061
-1.00057
-1.00041
-0.999889
-0.998614
-0.995503
-0.99209
-0.995084
-1.0002
-1.00077
-0.999962
-1.00026
-1.00025
-1.00023
-1.00023
-1.00018
-1.00012
-1.00015
-1.0003
-1.00046
-1.00054
-1.00055
-1.00057
-1.0006
-1.00055
-1.00045
-1.0002
-0.999878
-0.999359
-0.9991
-1.00039
-1.00123
-1.00124
-1.00107
-1.00016
-1.00014
-1.00009
-1.0001
-1.00006
-1.00003
-1.00006
-1.00019
-1.00032
-1.00036
-1.00038
-1.00039
-1.00043
-1.00035
-1.00033
-1.00029
-1.00027
-1.00027
-1.00039
-1.00063
-1.00063
-1.00049
-1.0005
-1.00006
-1.00004
-1.00002
-1.00003
-1.00001
-1
-1.00002
-1.00009
-1.00015
-1.00017
-1.0002
-1.00022
-1.00026
-1.00017
-1.00014
-1.00012
-1.00016
-1.00017
-1.00018
-1.00022
-1.00016
-1.00011
-1.00012
-1.00001
-1.00001
-1
-1
-1
-0.999996
-1
-1.00003
-1.00005
-1.00006
-1.00008
-1.0001
-1.00013
-1.00008
-1.00005
-1.00003
-1.00004
-1.00004
-1.00003
-1.00003
-1.00002
-1.00002
-1.00001
-1
-0.999999
-0.999999
-0.999999
-0.999998
-0.999996
-0.999996
-1
-1.00001
-1.00001
-1.00002
-1.00003
-1.00004
-1.00003
-1.00002
-1
-1.00001
-1.00001
-1
-1
-1
-1
-1
-0.999999
-0.999999
-0.999999
-0.999999
-0.999999
-0.999998
-0.999997
-0.999996
-0.999997
-0.999999
-1
-1.00001
-1.00001
-1.00001
-1
-1
-1
-1
-0.999999
-0.999999
-0.999999
-0.999999
-1
-1
-1
-1
-1
-1
-0.999999
-0.999999
-0.999998
-0.999998
-0.999998
-0.999999
-1
-1
-1
-1
-1
-1
-1
-1
-1
-1
-1
-1
-1
-1
-1
-1
-1
-1
-1
-0.999999
-0.999999
-0.999999
-0.999999
-0.999999
-1
-1
-1
-1
-1
-1
-1
-1
-1
-1
-1
-1
-1
-1
-1
-1
-1
-1
-1
-1
-1
-1
-1
-1
-1
-1
-1
-1
-1
-1
-1
-1
-1
-1
-1
-1
-1
-1
-1
-1
-1
-1
-1
-1
-1
-1
-1
-1
-1
-1
-1
-1
-1
-1
-1
-1
-1
-1
-1
-1
-1
-1
-1
-1
-1
-1
-1
-1
-1
-1
-1
-1
-1
-1
-1
-1
-1
-1
-1
-1
-1
-1
-1
-1
-1
-1
-1
-1
-1
-1
-1
-1
-1
-1
-1
-1
-1
-1
-1
-1
-1
-1
-1
-1
-1
-1
-1
-1
-1
-1
-1
-1
-1
-1
-1
-1
-1
-1
-1
-1
-1
-1
-1
-1
-1
-1
-1
-1
-1
-1
-1
-1
-1
-1
-1
-1
-1
-1
-1
-1
-1
-1
-1
-1
-1
-1
-1
-1
-1
-1
-1
-1
-1
-1
-1
-1
-1
-1
-1
-1
-1
-1
-1
-1
-1
-1
-1
-1
-1
-1
-1
-1
-1
-1
-1
-1
-1
-1
-1
-1
-1
-1
-1
-1
-1
-1
-1
-1
-1
-1
-1
-1
-1
-1
-1
-1
-1
-1
-1
-1
-1
-1
-1
-1
-1
-1
-1
-1
-1
-1
-1
-1
-1
-1
-1
-1
-1
-1
-1
-1
-1
-1
-1
-1
-1
-1
-1
-1
-1
-1
-1
-1
-1
-1
-1
-1
-1
-1
-1
-1
-1
-1
-1
-1
-1
-1
-1
-1
-1
-1
-1
-1
-1
-1
-1
-1
-1
-1
-1
-1
-1
-1
-1
-1
-1
-1
-1
-1
-1
-1
-1
-1
-1
-1
-1
-1
-1
-1
-1
-1
-1
-1
-1
-1
-1
-1
-1
-1
-1
-1
-1
-1
-1
-1
-1
-1
-1
-1
-1
-1
-1
-1
-1
-1
-1
-1
-1
-1
-1
-1
-1
-1
-1
-1
-1
-1
-1
-1
-1
-1
-1
-1
-1
-1
-1
-1
-1
-1
-1
-1
-1
-1
-1
-1
-1
-1
-1
-1
-1
-1
-1
-1
-1
-1
-1
-1
-1
-1
-1
-1
-1
-1
-1
-1
-1
-1
-1
-1
-1
-1
-1
-1
-1
-1
-1
-1
-1
-1
-1
-1
-1
-1
-1
-1
-1
-1
-1
-1
-1
-1
-1
-1
-1
-1
-1
-1
-1
-1
-1
-1
-1
-1
-1
-1
-1
-1
-1
-1
-1
-1
-1
-1
-1
-1
-1
-1
-1
-1
-1
-1
-1
-1
-1
-1
-1
-1
-1
-1
-1
-1
-1
-1
-1
-1
-1
-1
-1
-1
-1
-1
-1
-1
-1
-1
-1
-1
-1
-1
-1
-1
-1
-1
-1
-1
-1
-1
-1
-1
-1
-1
-1
-1
-1
-1
-1
-1
-1
-1
-1
-1
-1
-1
-1
-1
-1
-1
-1
-1
-1
-1
-1
-1
-1
-1
-1
-1
-1
-1
-1
-1
-1
-1
-1
-1
-1
-1
-1
-1
-1
-1
-1
-1
-1
-1
-1
-1
-1
-1
-1
-1
-1
-1
-1
-1
-1
-1
-1
-1
-1
-1
-1
-1
-1
-1
-1
-1
-1
-1
-1
-1
-1
-1
-1
-1
-1
-1
-1
-1
-1
-1
-1
-1
-1
-1
-1
-1
-1
-1
-1
-1
-1
-1
-1
-1
-1
-1
-1
-1
-1
-1
-1
-1
-1
-1
-1
-1
-1
-1
-1
-1
-1
-1
-1
1.01118
1.02405
1.01068
0.897412
1.00363
1.01551
1.02282
1.00803
0.979663
0.99046
1.00064
1.00772
0.876046
0.894792
0.914318
0.931099
0.561801
0.602608
0.640785
0.666673
-0.234503
-0.189851
-0.13213
-0.0614167
-0.753234
-0.742553
-0.722228
-0.685007
-0.924731
-0.919509
-0.916553
-0.911462
-0.980222
-0.980369
-0.98247
-0.980217
-0.99617
-0.997426
-0.998754
-0.998153
-1.00052
-1.00108
-1.00135
-1.00108
-1.00068
-1.00091
-1.00103
-1.00102
-1.00022
-1.00029
-1.00035
-1.00037
-1.00002
-1.00003
-1.00004
-1.00005
-0.999998
-0.999998
-0.999998
-0.999998
-1
-0.999999
-0.999999
-0.999999
-1
-1
-1
-1
-1
-1
-1
-1
-1
-1
-1
-1
-1
-1
-1
-1
-1
-1
-1
-1
-1
-1
-1
-1
-1
-1
-1
-1
-1
-1
-1
-1
-1
-1
-1
-1
-1
-1
-1
-1
-1
-1
-1
-1
-1
-1
-1
-1
-1
-1
-1
-1
-1
-1
-1
-1
-1
-1
-1
-1
-1
-1
-1
-1
-1
-1
-1
-1
-1
-1
-1
-1
-1
-1
-1
-1
-1
-1
-1
-1.00001
-1
-1
-1.00001
-1.00001
-1
-1.00001
-1.00001
-1.00001
-1
-1.00001
-1.00001
-1.00001
-1.00001
-1.00001
-1.00001
-1.00002
-1.00001
-1.00001
-1.00002
-1.00002
-1.00001
-1.00001
-1.00002
-1.00002
0.315113
-0.64599
-0.621221
-0.911259
-0.989002
-0.996451
-0.997173
-0.997873
-1.00038
-1.00145
-0.986939
-0.910094
-0.737503
-0.702861
-0.728072
-0.79386
-0.924025
-0.935769
-0.386155
0.902961
0.30563
0.128404
-0.708316
-0.914924
-0.946417
-0.985522
-1.00679
-1.0051
-1.00538
-1.00259
-0.963253
-0.768311
-0.7809
-0.846007
-0.889205
-0.969805
-0.93242
-0.336346
1.0047
0.925451
0.836679
0.313242
-0.0581986
-0.397242
-0.75187
-0.995019
-1.01536
-1.01224
-1.00194
-0.924834
-0.684949
-0.862628
-0.957336
-0.965388
-0.98277
-0.859714
-0.297049
0.945671
0.94256
0.950181
0.867959
0.694118
0.494637
-0.00651667
-0.805953
-0.990561
-1.00408
-0.980294
-0.822055
-0.579522
-0.88957
-0.986047
-0.914321
-0.795288
-0.442056
-0.0215563
0.736115
0.760463
0.830256
0.841436
0.825506
0.84252
0.717855
0.159142
-0.46678
-0.824764
-0.825987
-0.615874
-0.297679
-0.524894
-0.843456
-0.777365
-0.558591
-0.310848
-0.000227802
0.21802
0.0850573
0.329375
0.376538
0.463627
0.592041
0.668163
0.647192
0.434763
-0.11644
-0.226056
-0.105978
0.182374
0.231309
0.110111
0.0770671
-0.0612142
-0.209479
-0.0205023
-0.481589
-0.539688
-0.520398
-0.560068
-0.487463
-0.240769
0.054065
0.237922
0.401035
0.233451
0.255124
0.295849
0.363024
0.457871
0.484976
0.426759
0.146395
0.0583471
0.0948245
-0.872519
-0.855018
-0.880689
-0.907591
-0.876378
-0.768157
-0.591481
-0.433086
0.0191268
-0.0729611
-0.0854443
-0.0467601
0.0159983
0.223779
0.401865
0.3759
0.303164
0.196513
0.101308
-0.972924
-0.980174
-0.986646
-0.994393
-0.979919
-0.936453
-0.87089
-0.79176
-0.616677
-0.613967
-0.708318
-0.627636
-0.512015
-0.12217
0.273086
0.357119
0.344451
0.1043
-0.0565196
-0.997215
-1.00143
-1.00193
-1.00317
-0.998836
-0.986218
-0.963487
-0.926383
-0.868465
-0.825262
-0.872023
-0.828281
-0.752012
-0.553341
-0.0256651
0.276865
0.333707
0.131146
-0.1695
-1.00081
-1.00192
-1.00154
-1.00161
-1.00057
-0.995071
-0.980563
-0.949383
-0.909983
-0.887293
-0.893129
-0.792574
-0.627455
-0.503788
-0.139808
0.225227
0.325848
0.169359
-0.23992
-1.00095
-1.0009
-1.00041
-0.999788
-0.996304
-0.985741
-0.967399
-0.946198
-0.927577
-0.913232
-0.88523
-0.768655
-0.544809
-0.283367
-0.0247208
0.258563
0.31538
0.166655
-0.289355
-1.00041
-1.00022
-1.00008
-1.00003
-0.999361
-0.996165
-0.987248
-0.970183
-0.954908
-0.94041
-0.900034
-0.761423
-0.521684
-0.14883
0.0875166
0.226805
0.259774
0.123585
-0.343468
-1.00006
-1.00002
-0.999995
-1.00002
-1.00002
-0.99959
-0.997005
-0.989681
-0.984182
-0.979999
-0.962792
-0.902861
-0.764445
-0.421747
-0.0709936
0.0505399
0.126987
0.0362318
-0.401176
-0.999999
-0.999995
-0.999993
-0.999998
-1.00003
-1.00004
-0.999483
-0.996987
-0.994688
-0.991753
-0.977774
-0.941939
-0.839231
-0.650782
-0.353711
-0.165414
-0.0374037
-0.0676632
-0.439234
-0.999998
-0.999998
-0.999998
-0.999997
-1
-1.00003
-1
-0.999461
-0.998528
-0.996451
-0.990008
-0.972385
-0.930647
-0.840086
-0.584718
-0.330267
-0.198108
-0.171791
-0.473563
-1
-1
-1
-1
-1
-1.00001
-1.00002
-0.999937
-0.999616
-0.998761
-0.995421
-0.985436
-0.9621
-0.900072
-0.719357
-0.440363
-0.30095
-0.270437
-0.501839
-1
-1
-1
-1
-1
-1
-1.00001
-0.999993
-0.999828
-0.998993
-0.996009
-0.989236
-0.970835
-0.929186
-0.817906
-0.564518
-0.365571
-0.35654
-0.526241
-1
-1
-1
-1
-1
-1
-1
-1
-0.999935
-0.999556
-0.998124
-0.990413
-0.968959
-0.930607
-0.861773
-0.67815
-0.424533
-0.424248
-0.553644
-1
-1
-1
-1
-1
-1
-1
-1
-0.999979
-0.999838
-0.999262
-0.994235
-0.974248
-0.938952
-0.883043
-0.736274
-0.466389
-0.46928
-0.582841
-1
-1
-1
-1
-0.999999
-0.999997
-0.999994
-0.999996
-0.999998
-0.999973
-0.999362
-0.994308
-0.981222
-0.955997
-0.916421
-0.807964
-0.510249
-0.496683
-0.613047
-1
-1
-1
-1
-0.999998
-0.999993
-0.999982
-0.999978
-0.999989
-0.999966
-0.99901
-0.992774
-0.985383
-0.971942
-0.943626
-0.86169
-0.569352
-0.519781
-0.638917
-1
-1
-1
-1
-0.999998
-0.999991
-0.999973
-0.999947
-0.999971
-0.999956
-0.99943
-0.99759
-0.99368
-0.981509
-0.95379
-0.885137
-0.628695
-0.543366
-0.661365
-1
-1
-1
-1
-0.999998
-0.999991
-0.999968
-0.999922
-0.999931
-0.999939
-0.999738
-0.99904
-0.996079
-0.984946
-0.960533
-0.902388
-0.690288
-0.566857
-0.678595
-1
-1
-1
-1
-1
-0.999993
-0.999973
-0.999928
-0.999885
-0.999881
-0.999663
-0.998307
-0.993618
-0.983328
-0.964137
-0.925993
-0.781688
-0.594813
-0.692931
-1
-1
-1
-1.00001
-1.00001
-0.999999
-0.999978
-0.99993
-0.999859
-0.99975
-0.999336
-0.997711
-0.993091
-0.982457
-0.962846
-0.93682
-0.849557
-0.628019
-0.706068
-1
-1
-1
-1.00001
-1.00001
-0.999999
-0.999964
-0.999907
-0.999823
-0.99966
-0.999089
-0.997207
-0.990478
-0.976741
-0.959228
-0.94133
-0.883531
-0.664725
-0.716688
-1
-1
-1
-1.00001
-1.00001
-1.00001
-0.999979
-0.999912
-0.999779
-0.99949
-0.998534
-0.995647
-0.988139
-0.974796
-0.958431
-0.944511
-0.902421
-0.704042
-0.726481
-1
-1
-1
-1.00001
-1.00001
-1.00001
-0.999973
-0.999887
-0.999732
-0.999342
-0.998124
-0.9941
-0.98557
-0.972694
-0.961435
-0.94984
-0.915844
-0.744221
-0.736627
-1
-1
-1
-1.00001
-1.00001
-1.00001
-0.999965
-0.999813
-0.999627
-0.999165
-0.997881
-0.994152
-0.986063
-0.972673
-0.961971
-0.952664
-0.924137
-0.777768
-0.747206
-1
-1
-1
-1.00001
-1.00001
-1.00001
-0.999974
-0.99988
-0.999707
-0.99932
-0.998282
-0.995356
-0.986842
-0.971182
-0.962268
-0.955116
-0.931718
-0.803267
-0.75792
-1
-1
-1.00001
-1.00001
-1.00001
-1.00001
-0.999997
-0.999953
-0.999804
-0.999351
-0.99818
-0.995449
-0.988045
-0.973564
-0.964196
-0.960119
-0.944272
-0.835038
-0.769961
-1
-1
-1.00001
-1.00001
-1
-0.999998
-0.99999
-0.999942
-0.999759
-0.999326
-0.998187
-0.994642
-0.984566
-0.968563
-0.963058
-0.961282
-0.938242
-0.854496
-0.782521
-1
-1.00001
-1.00001
-1.00001
-0.999996
-0.999979
-0.999972
-0.999946
-0.999818
-0.999334
-0.997668
-0.992227
-0.979643
-0.964954
-0.962308
-0.964015
-0.950357
-0.888404
-0.795909
-1.00001
-1.00001
-1.00001
-1.00001
-0.99999
-0.999964
-0.999942
-0.999922
-0.999847
-0.999506
-0.998198
-0.993518
-0.981807
-0.965776
-0.96284
-0.967051
-0.96075
-0.913059
-0.809745
-1.00001
-1.00001
-1.00001
-0.999999
-0.999972
-0.999934
-0.999881
-0.999867
-0.999831
-0.9997
-0.998908
-0.995304
-0.985283
-0.968547
-0.96401
-0.968527
-0.969233
-0.924358
-0.822511
-1.00001
-1.00001
-1
-0.999984
-0.999952
-0.999897
-0.99982
-0.999788
-0.99975
-0.999614
-0.999024
-0.996553
-0.988419
-0.971952
-0.965827
-0.969807
-0.963629
-0.900543
-0.832976
-1.00001
-1.00001
-0.999992
-0.999955
-0.999906
-0.999832
-0.999746
-0.999689
-0.999617
-0.999412
-0.998904
-0.9973
-0.991789
-0.97689
-0.968441
-0.971473
-0.966247
-0.910761
-0.844817
-1.00001
-1
-0.99997
-0.999901
-0.999821
-0.999681
-0.999612
-0.999543
-0.999442
-0.999239
-0.998874
-0.998007
-0.994762
-0.982243
-0.971666
-0.973936
-0.969499
-0.924969
-0.858268
-1.00002
-1
-0.999943
-0.999821
-0.999704
-0.999563
-0.999513
-0.999498
-0.999447
-0.999347
-0.99908
-0.998251
-0.995975
-0.988771
-0.976715
-0.975353
-0.973055
-0.940317
-0.872177
-1.00002
-0.999992
-0.999906
-0.999779
-0.999641
-0.999523
-0.999507
-0.999563
-0.999579
-0.999608
-0.999585
-0.999455
-0.998801
-0.996305
-0.985855
-0.978055
-0.97501
-0.950884
-0.886652
-1.00002
-0.999989
-0.999879
-0.99975
-0.999597
-0.999488
-0.999513
-0.999604
-0.999649
-0.999663
-0.999657
-0.999614
-0.999417
-0.998288
-0.991017
-0.982129
-0.978627
-0.968969
-0.919211
)
;

boundaryField
{
    leftWall
    {
        type            zeroGradient;
    }
    rightWall
    {
        type            zeroGradient;
    }
    lowerWall
    {
        type            zeroGradient;
    }
    atmosphere
    {
        type            zeroGradient;
    }
    defaultFaces
    {
        type            empty;
    }
}


// ************************************************************************* //
