/*--------------------------------*- C++ -*----------------------------------*\
| =========                 |                                                 |
| \\      /  F ield         | foam-extend: Open Source CFD                    |
|  \\    /   O peration     | Version:     4.1                                |
|   \\  /    A nd           | Web:         http://www.foam-extend.org         |
|    \\/     M anipulation  |                                                 |
\*---------------------------------------------------------------------------*/
FoamFile
{
    version     2.0;
    format      ascii;
    class       volScalarField;
    location    "0.4";
    object      C_0;
}
// * * * * * * * * * * * * * * * * * * * * * * * * * * * * * * * * * * * * * //

dimensions      [0 0 0 0 0 0 0];

internalField   nonuniform List<scalar> 
2268
(
1.00025
1.00026
1.00027
1.0003
1.00032
1.00036
1.00046
1.00064
1.00071
1.00046
1.00029
1.0003
1.00036
1.00041
1.00043
1.00044
1.00047
1.00048
1.00046
1.00039
1.00031
1.00005
0.999347
1.00039
1.00038
1.00038
1.00044
1.00046
1.00053
1.00067
1.0008
1.00064
1
0.999893
1.00004
1.00024
1.00036
1.0004
1.00041
1.00045
1.00049
1.00051
1.0005
1.00041
1.00011
0.999364
1.00052
1.00047
1.00041
1.00053
1.00051
1.00064
1.0008
1.00071
0.999811
0.998461
0.998621
0.999131
0.999706
1.00002
1.00015
1.00018
1.00026
1.00039
1.00056
1.00069
1.00061
1.00025
0.999405
1.00022
1.00004
0.999811
1.00003
0.999852
1.00007
1.0001
0.999329
0.996812
0.994942
0.995643
0.996854
0.998111
0.998851
0.99927
0.99943
0.999645
0.999977
1.00043
1.00085
1.00088
1.00046
0.999485
0.998502
0.998006
0.997435
0.99777
0.997169
0.997376
0.996946
0.994455
0.98938
0.987616
0.989185
0.991534
0.994024
0.995683
0.996887
0.997557
0.998123
0.998852
0.999785
1.00073
1.0011
1.00072
0.999617
0.993407
0.992281
0.991107
0.99145
0.989925
0.989746
0.988156
0.982044
0.974549
0.973108
0.975746
0.97984
0.984649
0.988267
0.991357
0.993504
0.994974
0.996374
0.998041
0.999906
1.00096
1.00093
0.999785
0.981306
0.979088
0.976968
0.976808
0.973546
0.971885
0.967841
0.955879
0.946501
0.944905
0.948797
0.955443
0.964791
0.972477
0.97968
0.98543
0.98916
0.991635
0.994334
0.997549
0.999845
1.00084
0.999856
0.955841
0.951918
0.948376
0.946122
0.940102
0.933959
0.92566
0.907411
0.89461
0.891317
0.895971
0.906742
0.925169
0.9411
0.956641
0.97011
0.979034
0.983364
0.987425
0.992499
0.996853
0.999857
0.999648
-0.97535
-0.968207
-0.964559
-0.95933
-0.951586
-0.944132
-0.936823
-0.927824
-0.917282
-0.90199
-0.881227
-0.854528
-0.829161
-0.797658
-0.7591
-0.682615
-0.648249
-0.625504
-0.609267
-0.976894
-0.973087
-0.978737
-0.979831
-0.973834
-0.964566
-0.959367
-0.95222
-0.947172
-0.94259
-0.935851
-0.918147
-0.897596
-0.869101
-0.832562
-0.724801
-0.667958
-0.62418
-0.572343
-0.978908
-0.978291
-0.98818
-0.991433
-0.98665
-0.980225
-0.977858
-0.968452
-0.961272
-0.95922
-0.962223
-0.955746
-0.927128
-0.906532
-0.895877
-0.810013
-0.734059
-0.651851
-0.541683
-0.980202
-0.981157
-0.989739
-0.995747
-0.994808
-0.992724
-0.992088
-0.982437
-0.965711
-0.955016
-0.953796
-0.955225
-0.913101
-0.881922
-0.911954
-0.898469
-0.835031
-0.714022
-0.520544
-0.983521
-0.986169
-0.991075
-0.996198
-0.998707
-0.998739
-0.997663
-0.991745
-0.975848
-0.950993
-0.930932
-0.919669
-0.857694
-0.795042
-0.85247
-0.944959
-0.918795
-0.79438
-0.500691
-0.994699
-0.994458
-0.993216
-0.99352
-0.996396
-0.999115
-0.997985
-0.995729
-0.98898
-0.964506
-0.922588
-0.873145
-0.790253
-0.71979
-0.772898
-0.931661
-0.959849
-0.857738
-0.477588
-0.966372
-0.972625
-0.963013
-0.971166
-0.983679
-0.996447
-0.996868
-0.996794
-0.997261
-0.983266
-0.93909
-0.858309
-0.74474
-0.685571
-0.725045
-0.879553
-0.971969
-0.903632
-0.453364
-0.69137
-0.875762
-0.868518
-0.93323
-0.973902
-0.99192
-0.994526
-0.996285
-0.999693
-0.995526
-0.962124
-0.87266
-0.732481
-0.679561
-0.710717
-0.827477
-0.960715
-0.922282
-0.428558
0.880609
0.872742
0.865889
0.854458
0.843288
0.820163
0.804705
0.774319
0.750663
0.740232
0.743864
0.766075
0.811199
0.851368
0.890712
0.926865
0.952585
0.96259
0.96972
0.978496
0.98777
0.995167
0.998885
0.60806
0.590096
0.574422
0.51833
0.507856
0.443249
0.410507
0.340033
0.280047
0.244793
0.235697
0.293232
0.415114
0.531988
0.644673
0.759747
0.856861
0.897761
0.920975
0.944948
0.964256
0.977741
0.991155
-0.119648
-0.140731
-0.159978
-0.233441
-0.244695
-0.318368
-0.364763
-0.439527
-0.494988
-0.531539
-0.539872
-0.495552
-0.391268
-0.25774
-0.0828698
0.173176
0.485295
0.676662
0.784301
0.860353
0.900037
0.925723
0.960139
-0.72733
-0.732469
-0.736527
-0.757708
-0.763623
-0.793918
-0.814443
-0.843686
-0.862292
-0.874614
-0.871012
-0.850429
-0.815009
-0.775515
-0.718749
-0.598903
-0.32558
0.0533315
0.379432
0.611452
0.721883
0.768189
0.83531
-0.919666
-0.92051
-0.920667
-0.925315
-0.927963
-0.937931
-0.945391
-0.955253
-0.960971
-0.964799
-0.96145
-0.954985
-0.946527
-0.937373
-0.925223
-0.899024
-0.807819
-0.604153
-0.293525
0.0639806
0.331408
0.436409
0.496985
-0.974483
-0.97477
-0.974855
-0.976084
-0.97717
-0.980443
-0.983097
-0.986393
-0.988221
-0.989377
-0.987716
-0.986199
-0.985266
-0.983713
-0.982476
-0.97809
-0.946327
-0.840955
-0.648402
-0.418893
-0.109928
-0.152872
-0.274037
-0.992018
-0.99218
-0.992394
-0.992839
-0.993245
-0.99436
-0.995203
-0.996173
-0.996811
-0.99718
-0.996781
-0.996741
-0.996706
-0.996429
-0.996117
-0.994182
-0.978553
-0.926821
-0.842138
-0.780285
-0.626801
-0.682013
-0.746481
-0.997924
-0.998011
-0.998182
-0.998344
-0.99853
-0.998837
-0.999054
-0.999259
-0.999538
-0.999749
-0.999826
-0.999868
-0.999669
-0.999439
-0.999236
-0.998197
-0.992422
-0.972719
-0.939779
-0.940126
-0.917315
-0.922027
-0.932217
-0.999746
-0.999789
-0.999873
-0.999919
-0.999979
-1.00001
-1.00006
-1.00015
-1.00035
-1.00049
-1.00055
-1.00053
-1.00043
-1.00033
-1.00021
-0.999458
-0.996534
-0.987684
-0.975735
-0.982647
-0.989787
-0.989245
-0.988333
-1.00019
-1.00021
-1.00022
-1.00023
-1.00022
-1.00019
-1.00021
-1.00033
-1.0005
-1.00061
-1.00063
-1.00062
-1.00061
-1.00057
-1.00041
-0.999887
-0.998588
-0.995397
-0.991967
-0.995063
-1.0002
-1.00077
-1.00002
-1.00026
-1.00025
-1.00023
-1.00023
-1.00018
-1.00012
-1.00015
-1.0003
-1.00046
-1.00054
-1.00055
-1.00057
-1.00061
-1.00056
-1.00045
-1.0002
-0.999874
-0.999341
-0.999078
-1.00039
-1.00123
-1.00123
-1.00109
-1.00016
-1.00014
-1.00009
-1.0001
-1.00006
-1.00003
-1.00006
-1.00019
-1.00032
-1.00036
-1.00038
-1.00039
-1.00044
-1.00035
-1.00033
-1.00029
-1.00027
-1.00027
-1.00039
-1.00063
-1.00063
-1.00049
-1.00049
-1.00006
-1.00004
-1.00002
-1.00003
-1.00001
-1
-1.00002
-1.00009
-1.00015
-1.00017
-1.0002
-1.00022
-1.00026
-1.00018
-1.00014
-1.00012
-1.00016
-1.00017
-1.00018
-1.00022
-1.00017
-1.00011
-1.00011
-1.00001
-1.00001
-1
-1
-1
-0.999996
-1
-1.00003
-1.00005
-1.00006
-1.00008
-1.0001
-1.00013
-1.00008
-1.00005
-1.00003
-1.00004
-1.00004
-1.00003
-1.00003
-1.00002
-1.00002
-1.00001
-1
-0.999999
-0.999999
-0.999999
-0.999998
-0.999996
-0.999996
-1
-1.00001
-1.00001
-1.00002
-1.00003
-1.00004
-1.00003
-1.00002
-1
-1.00001
-1.00001
-1
-1
-1
-1
-1
-0.999999
-0.999999
-0.999999
-0.999999
-0.999999
-0.999998
-0.999997
-0.999996
-0.999997
-0.999999
-1
-1.00001
-1.00001
-1.00001
-1
-1
-1
-1
-0.999999
-0.999999
-0.999999
-0.999999
-1
-1
-1
-1
-1
-1
-0.999999
-0.999999
-0.999998
-0.999998
-0.999998
-0.999999
-1
-1
-1
-1
-1
-1
-1
-1
-1
-1
-1
-1
-1
-1
-1
-1
-1
-1
-1
-0.999999
-0.999999
-0.999999
-0.999999
-0.999999
-1
-1
-1
-1
-1
-1
-1
-1
-1
-1
-1
-1
-1
-1
-1
-1
-1
-1
-1
-1
-1
-1
-1
-1
-1
-1
-1
-1
-1
-1
-1
-1
-1
-1
-1
-1
-1
-1
-1
-1
-1
-1
-1
-1
-1
-1
-1
-1
-1
-1
-1
-1
-1
-1
-1
-1
-1
-1
-1
-1
-1
-1
-1
-1
-1
-1
-1
-1
-1
-1
-1
-1
-1
-1
-1
-1
-1
-1
-1
-1
-1
-1
-1
-1
-1
-1
-1
-1
-1
-1
-1
-1
-1
-1
-1
-1
-1
-1
-1
-1
-1
-1
-1
-1
-1
-1
-1
-1
-1
-1
-1
-1
-1
-1
-1
-1
-1
-1
-1
-1
-1
-1
-1
-1
-1
-1
-1
-1
-1
-1
-1
-1
-1
-1
-1
-1
-1
-1
-1
-1
-1
-1
-1
-1
-1
-1
-1
-1
-1
-1
-1
-1
-1
-1
-1
-1
-1
-1
-1
-1
-1
-1
-1
-1
-1
-1
-1
-1
-1
-1
-1
-1
-1
-1
-1
-1
-1
-1
-1
-1
-1
-1
-1
-1
-1
-1
-1
-1
-1
-1
-1
-1
-1
-1
-1
-1
-1
-1
-1
-1
-1
-1
-1
-1
-1
-1
-1
-1
-1
-1
-1
-1
-1
-1
-1
-1
-1
-1
-1
-1
-1
-1
-1
-1
-1
-1
-1
-1
-1
-1
-1
-1
-1
-1
-1
-1
-1
-1
-1
-1
-1
-1
-1
-1
-1
-1
-1
-1
-1
-1
-1
-1
-1
-1
-1
-1
-1
-1
-1
-1
-1
-1
-1
-1
-1
-1
-1
-1
-1
-1
-1
-1
-1
-1
-1
-1
-1
-1
-1
-1
-1
-1
-1
-1
-1
-1
-1
-1
-1
-1
-1
-1
-1
-1
-1
-1
-1
-1
-1
-1
-1
-1
-1
-1
-1
-1
-1
-1
-1
-1
-1
-1
-1
-1
-1
-1
-1
-1
-1
-1
-1
-1
-1
-1
-1
-1
-1
-1
-1
-1
-1
-1
-1
-1
-1
-1
-1
-1
-1
-1
-1
-1
-1
-1
-1
-1
-1
-1
-1
-1
-1
-1
-1
-1
-1
-1
-1
-1
-1
-1
-1
-1
-1
-1
-1
-1
-1
-1
-1
-1
-1
-1
-1
-1
-1
-1
-1
-1
-1
-1
-1
-1
-1
-1
-1
-1
-1
-1
-1
-1
-1
-1
-1
-1
-1
-1
-1
-1
-1
-1
-1
-1
-1
-1
-1
-1
-1
-1
-1
-1
-1
-1
-1
-1
-1
-1
-1
-1
-1
-1
-1
-1
-1
-1
-1
-1
-1
-1
-1
-1
-1
-1
-1
-1
-1
-1
-1
-1
-1
-1
-1
-1
-1
-1
-1
-1
-1
-1
-1
-1
-1
-1
-1
-1
-1
-1
-1
-1
-1
-1
-1
-1
-1
-1
-1
-1
-1
-1
-1
-1
-1
-1
-1
-1
-1
-1
-1
-1
-1
-1
-1
-1
-1
-1
-1
-1
-1
-1
-1
-1
-1
-1
-1
-1
-1
-1
-1
-1
-1
-1
-1
-1
-1
-1
-1
-1
-1
-1
-1
-1
-1
-1
-1
-1
-1
-1
-1
-1
-1
-1
-1
-1
-1
-1
-1
-1
-1
-1
-1
-1
-1
-1
-1
-1
-1
-1
-1
-1
-1
-1
-1
-1
-1
-1
-1
-1
-1
-1
-1
-1
-1
-1
-1
-1
-1
-1
-1
-1
-1
-1
-1
-1
-1
1.01124
1.02412
1.01042
0.896095
1.00371
1.01562
1.02286
1.00781
0.979747
0.990569
1.00075
1.00782
0.875707
0.894552
0.914187
0.931042
0.559762
0.600956
0.639461
0.665436
-0.238291
-0.193326
-0.135433
-0.0647651
-0.755193
-0.744489
-0.724134
-0.687038
-0.92555
-0.920519
-0.917628
-0.91258
-0.980536
-0.980825
-0.982998
-0.980733
-0.996331
-0.997617
-0.998939
-0.99832
-1.00056
-1.00112
-1.00138
-1.00112
-1.00067
-1.0009
-1.00102
-1.00102
-1.00021
-1.00028
-1.00034
-1.00036
-1.00002
-1.00003
-1.00004
-1.00004
-0.999999
-0.999998
-0.999998
-0.999998
-1
-0.999999
-0.999999
-0.999999
-1
-1
-1
-1
-1
-1
-1
-1
-1
-1
-1
-1
-1
-1
-1
-1
-1
-1
-1
-1
-1
-1
-1
-1
-1
-1
-1
-1
-1
-1
-1
-1
-1
-1
-1
-1
-1
-1
-1
-1
-1
-1
-1
-1
-1
-1
-1
-1
-1
-1
-1
-1
-1
-1
-1
-1
-1
-1
-1
-1
-1
-1
-1
-1
-1
-1
-1
-1
-1
-1
-1
-1
-1
-1
-1
-1
-1
-1
-1
-1.00001
-1
-1
-1.00001
-1.00001
-1
-1.00001
-1.00001
-1.00001
-1
-1.00001
-1.00001
-1.00001
-1.00001
-1.00001
-1.00001
-1.00002
-1.00001
-1.00001
-1.00002
-1.00002
-1.00001
-1.00001
-1.00002
-1.00002
0.311676
-0.651987
-0.624133
-0.915592
-0.990019
-0.996674
-0.997304
-0.998098
-1.00076
-1.00157
-0.986301
-0.906988
-0.733253
-0.699426
-0.725547
-0.795665
-0.927189
-0.937348
-0.390667
0.901788
0.298795
0.125051
-0.710786
-0.916619
-0.947738
-0.986157
-1.00721
-1.00543
-1.00553
-1.00243
-0.96116
-0.76454
-0.776172
-0.841667
-0.888028
-0.971326
-0.933941
-0.339584
1.00465
0.924179
0.835311
0.308675
-0.0614438
-0.399503
-0.75332
-0.994961
-1.01525
-1.01212
-1.00105
-0.920169
-0.681624
-0.861771
-0.956533
-0.965257
-0.983675
-0.861133
-0.298356
0.94561
0.942222
0.950231
0.867175
0.692833
0.492515
-0.00915726
-0.805787
-0.990742
-1.0032
-0.977534
-0.810559
-0.577493
-0.892591
-0.987207
-0.917006
-0.799671
-0.443003
-0.0209952
0.735144
0.76015
0.829849
0.841284
0.825309
0.842287
0.717274
0.158764
-0.469623
-0.820349
-0.816759
-0.593544
-0.289211
-0.528253
-0.844979
-0.779543
-0.567486
-0.314847
0.000809238
0.215406
0.0835445
0.328915
0.377449
0.464596
0.592247
0.66817
0.6472
0.43353
-0.110553
-0.207246
-0.080096
0.204405
0.238988
0.112156
0.0758533
-0.0746267
-0.219143
-0.0198339
-0.484004
-0.541007
-0.520541
-0.560024
-0.487068
-0.240887
0.0540522
0.237217
0.401029
0.2341
0.258723
0.300373
0.369221
0.462912
0.48714
0.423121
0.135708
0.0553053
0.0951646
-0.87372
-0.855084
-0.881099
-0.907871
-0.876366
-0.768349
-0.591643
-0.433847
0.0161247
-0.0779878
-0.088762
-0.0482909
0.0142538
0.225763
0.4038
0.373304
0.301477
0.195052
0.100391
-0.973423
-0.980247
-0.98676
-0.994457
-0.979959
-0.936661
-0.871318
-0.792268
-0.618555
-0.618253
-0.712222
-0.631864
-0.514035
-0.118965
0.274853
0.357446
0.344496
0.0977274
-0.059671
-0.997334
-1.00144
-1.00193
-1.00317
-0.998906
-0.986462
-0.964082
-0.927162
-0.869974
-0.82717
-0.873663
-0.830002
-0.753096
-0.552001
-0.0237612
0.278836
0.333988
0.12687
-0.173413
-1.00084
-1.00192
-1.00153
-1.00162
-1.00068
-0.995413
-0.981241
-0.950312
-0.911153
-0.888464
-0.894284
-0.794695
-0.6287
-0.501977
-0.135373
0.228993
0.326311
0.166334
-0.244995
-1.00096
-1.0009
-1.00041
-0.999875
-0.996678
-0.986571
-0.968517
-0.94731
-0.928744
-0.914522
-0.887191
-0.771838
-0.547806
-0.283119
-0.0200589
0.260385
0.314994
0.16341
-0.295008
-1.0004
-1.00021
-1.00007
-1.00004
-0.999443
-0.996417
-0.987809
-0.971092
-0.955999
-0.941741
-0.90184
-0.764337
-0.525069
-0.151273
0.0872065
0.225845
0.257389
0.119685
-0.349365
-1.00005
-1.00002
-0.999994
-1.00001
-1.00003
-0.999637
-0.997198
-0.990125
-0.984682
-0.980494
-0.963398
-0.903809
-0.765941
-0.425009
-0.0731663
0.0477187
0.123407
0.0323801
-0.406216
-0.999999
-0.999995
-0.999993
-0.999997
-1.00003
-1.00005
-0.99954
-0.997171
-0.994914
-0.991997
-0.978048
-0.942266
-0.839777
-0.651769
-0.354718
-0.166615
-0.0399442
-0.0707959
-0.443296
-0.999998
-0.999998
-0.999998
-0.999997
-1
-1.00003
-1.00001
-0.999504
-0.998591
-0.996504
-0.990028
-0.97243
-0.930714
-0.840016
-0.584508
-0.330137
-0.19955
-0.174318
-0.476844
-1
-1
-1
-1
-1
-1.00001
-1.00002
-0.999943
-0.99963
-0.998774
-0.995466
-0.985563
-0.962382
-0.90036
-0.7188
-0.438936
-0.301595
-0.272687
-0.504579
-1
-1
-1
-1
-1
-1
-1.00001
-0.999994
-0.999833
-0.999009
-0.99607
-0.98941
-0.971198
-0.929614
-0.817734
-0.56265
-0.365612
-0.358455
-0.528836
-1
-1
-1
-1
-1
-1
-1
-1
-0.999937
-0.999561
-0.99816
-0.990624
-0.969336
-0.931008
-0.861737
-0.676828
-0.423953
-0.425664
-0.556211
-1
-1
-1
-1
-1
-1
-1
-1
-0.999979
-0.999838
-0.999265
-0.994267
-0.974193
-0.938718
-0.882564
-0.734823
-0.465823
-0.47025
-0.585299
-1
-1
-1
-1
-0.999999
-0.999997
-0.999994
-0.999995
-0.999997
-0.999973
-0.99937
-0.994329
-0.981091
-0.955459
-0.915532
-0.806546
-0.509501
-0.49732
-0.615444
-1
-1
-1
-1
-0.999998
-0.999993
-0.999982
-0.999977
-0.999989
-0.999966
-0.999019
-0.99278
-0.985253
-0.971593
-0.943186
-0.861289
-0.5687
-0.520225
-0.641131
-1
-1
-1
-1
-0.999997
-0.999991
-0.999973
-0.999946
-0.99997
-0.999956
-0.999433
-0.997571
-0.993611
-0.981295
-0.953484
-0.885015
-0.628178
-0.543664
-0.663331
-1
-1
-1
-1
-0.999998
-0.999991
-0.999968
-0.999921
-0.99993
-0.999938
-0.999736
-0.999027
-0.996036
-0.984795
-0.960245
-0.902213
-0.689357
-0.567115
-0.680241
-1
-1
-1
-1
-1
-0.999993
-0.999973
-0.999927
-0.999884
-0.999879
-0.999657
-0.998286
-0.993561
-0.983193
-0.963865
-0.925624
-0.780579
-0.594868
-0.694478
-1
-1
-1
-1.00001
-1.00001
-0.999999
-0.999977
-0.999929
-0.999857
-0.999745
-0.999323
-0.997681
-0.993034
-0.982351
-0.962607
-0.93652
-0.849069
-0.628062
-0.707451
-1
-1
-1
-1.00001
-1.00001
-0.999999
-0.999963
-0.999906
-0.999821
-0.999654
-0.999075
-0.99718
-0.990428
-0.976617
-0.958939
-0.94106
-0.883411
-0.664936
-0.717897
-1
-1
-1
-1.00001
-1.00001
-1
-0.999979
-0.99991
-0.999775
-0.999482
-0.998514
-0.9956
-0.988051
-0.974655
-0.958162
-0.944268
-0.902366
-0.704381
-0.727582
-1
-1
-1
-1.00001
-1.00001
-1.00001
-0.999972
-0.999885
-0.999728
-0.99933
-0.998093
-0.994004
-0.985377
-0.972449
-0.961221
-0.949652
-0.915867
-0.744705
-0.737658
-1
-1
-1
-1.00001
-1.00001
-1.00001
-0.999964
-0.999809
-0.99962
-0.999149
-0.997836
-0.994021
-0.985768
-0.9723
-0.961772
-0.952518
-0.924201
-0.778264
-0.748196
-1
-1
-1
-1.00001
-1.00001
-1.00001
-0.999974
-0.999878
-0.999702
-0.999304
-0.998237
-0.995224
-0.986525
-0.970833
-0.962126
-0.955027
-0.931867
-0.803947
-0.758911
-1
-1
-1.00001
-1.00001
-1.00001
-1.00001
-0.999996
-0.999952
-0.999799
-0.999331
-0.998123
-0.995305
-0.987713
-0.973104
-0.964023
-0.96006
-0.944495
-0.835858
-0.770974
-1
-1
-1.00001
-1.00001
-1
-0.999998
-0.99999
-0.99994
-0.999751
-0.999303
-0.998123
-0.994467
-0.984191
-0.968206
-0.962977
-0.961372
-0.938727
-0.85543
-0.783573
-1
-1.00001
-1.00001
-1.00001
-0.999995
-0.999978
-0.999971
-0.999944
-0.999812
-0.999309
-0.997582
-0.991978
-0.979146
-0.96462
-0.962273
-0.964116
-0.950669
-0.889211
-0.79699
-1.00001
-1.00001
-1.00001
-1.00001
-0.99999
-0.999963
-0.999941
-0.999921
-0.999843
-0.99949
-0.998136
-0.993313
-0.981345
-0.965435
-0.962798
-0.967198
-0.960958
-0.913719
-0.810853
-1.00001
-1.00001
-1.00001
-0.999999
-0.999971
-0.999932
-0.999879
-0.999865
-0.999828
-0.999692
-0.998872
-0.99515
-0.984869
-0.968163
-0.964001
-0.968628
-0.969439
-0.92462
-0.823523
-1.00001
-1.00001
-1
-0.999983
-0.999951
-0.999894
-0.999817
-0.999785
-0.999745
-0.999603
-0.998988
-0.996418
-0.988019
-0.971507
-0.965826
-0.969947
-0.963849
-0.90109
-0.833978
-1.00001
-1.00001
-0.999992
-0.999955
-0.999905
-0.999828
-0.999743
-0.999685
-0.999609
-0.999394
-0.998862
-0.997182
-0.99144
-0.976367
-0.968395
-0.971645
-0.966427
-0.911077
-0.845722
-1.00001
-1
-0.999969
-0.9999
-0.999819
-0.999678
-0.999609
-0.999539
-0.999435
-0.999224
-0.998841
-0.997924
-0.994497
-0.981632
-0.971561
-0.974146
-0.969675
-0.925153
-0.859106
-1.00002
-1
-0.999942
-0.99982
-0.999702
-0.999561
-0.999512
-0.999496
-0.999444
-0.999339
-0.999053
-0.998157
-0.995695
-0.987997
-0.976058
-0.975401
-0.973216
-0.940306
-0.872855
-1.00002
-0.999992
-0.999905
-0.999778
-0.999639
-0.999521
-0.999507
-0.999564
-0.999581
-0.999608
-0.999583
-0.999435
-0.99869
-0.995837
-0.984891
-0.977883
-0.975121
-0.950992
-0.887213
-1.00002
-0.999989
-0.999878
-0.999748
-0.999595
-0.999487
-0.999513
-0.999604
-0.999649
-0.999663
-0.999656
-0.999609
-0.999384
-0.998045
-0.989837
-0.981474
-0.978629
-0.969192
-0.919564
)
;

boundaryField
{
    leftWall
    {
        type            zeroGradient;
    }
    rightWall
    {
        type            zeroGradient;
    }
    lowerWall
    {
        type            zeroGradient;
    }
    atmosphere
    {
        type            zeroGradient;
    }
    defaultFaces
    {
        type            empty;
    }
}


// ************************************************************************* //
