/*--------------------------------*- C++ -*----------------------------------*\
| =========                 |                                                 |
| \\      /  F ield         | foam-extend: Open Source CFD                    |
|  \\    /   O peration     | Version:     4.1                                |
|   \\  /    A nd           | Web:         http://www.foam-extend.org         |
|    \\/     M anipulation  |                                                 |
\*---------------------------------------------------------------------------*/
FoamFile
{
    version     2.0;
    format      ascii;
    class       volScalarField;
    location    "0.4";
    object      p;
}
// * * * * * * * * * * * * * * * * * * * * * * * * * * * * * * * * * * * * * //

dimensions      [1 -1 -2 0 0 0 0];

internalField   nonuniform List<scalar> 
2268
(
754.267
754.061
753.187
743.722
744.809
730.231
733.196
721.941
728.695
730.456
766.089
797.754
787.271
805.309
825.436
835.337
890.899
860.989
926.552
951.057
998.602
1014.53
1024.34
695.172
694.906
693.955
684.56
685.671
671.05
673.303
662.292
668.523
665.212
729.824
720.267
723.631
740.218
765.273
775.973
844.043
788.505
866.334
871.187
945.235
955.456
962.658
635.845
635.518
634.495
625.337
625.869
610.98
614.806
601.745
609.59
602.08
661.414
655.311
665.999
680.236
703.844
710.293
771.922
739.59
811.711
837.353
873.926
879.256
912.898
576.32
575.82
574.415
565.666
566.012
551.092
552.976
538.425
545.035
571.631
581.085
589.185
600.426
617.226
642.645
650.939
697.515
696.587
749.579
760.783
807.485
840.227
844.38
516.552
515.962
514.356
506.16
505.297
489.709
495.001
483.693
475.297
514.566
515.085
525.247
539.815
556.656
578.579
593.991
634.413
645.272
693.904
716.714
733.904
754.723
774.224
456.872
455.914
453.514
445.769
444.459
430.597
425.973
414.424
436.555
440.684
448.611
458.331
475.307
493.026
516.338
534.02
569.026
587.571
621.628
637.891
680.384
686.569
711.697
396.924
395.756
393.324
386.646
384.2
365.033
380.713
346.839
375.948
375.296
383.151
393.219
412.172
428.389
452.831
475.962
499.272
543.363
554.389
615.44
603.201
606.693
639.889
337.925
336.485
332.68
324.346
322.216
314.301
302.379
302.238
307.158
308.706
317.551
326.661
346.782
364.989
390.97
415.742
448.149
473.699
502.57
509.207
574.028
554.124
582.805
545.161
449.921
388.364
377.112
367.996
372.221
375.862
383.503
387.375
383.631
390.431
400.06
399.469
477.625
423.897
462.153
569.725
680.742
1064.96
525.447
395.204
359.448
367.089
359.913
373.616
373.195
375.05
376.831
374.995
385.941
394.669
378.569
458.702
450.15
496.174
475.471
620.032
1000.28
499.004
379.562
362.733
367.254
368.498
368.979
371.141
371.918
375.131
377.354
381.743
379.641
382.108
443.417
487.813
505.739
493.646
563.947
927.914
490.094
382.056
363.107
367.831
366.613
363.82
370.883
371.072
375.808
376.415
378.824
371.568
374.529
432.364
504.176
493.422
473.343
505.765
821.216
494.741
393.695
367.196
365.626
366.636
367.244
371.589
370.986
371.573
374.383
378.224
368.19
363.272
424.794
501.535
485.71
468.551
461.957
681.712
506.443
420.063
373.689
368.017
364.558
365.85
370.285
369.075
369.331
371.86
374.839
364.037
363.281
415.461
483.989
475.337
459.527
434.466
604.616
528.043
421.734
359.696
365.372
367.437
361.971
368.913
367.47
368.573
370.396
371.118
361.345
357.459
392.309
477.101
464.149
454.824
427.194
560.247
514.026
414.11
373.006
357.002
362.45
360.154
367.68
367.298
369.834
370.704
371.38
361.219
373.371
377.736
442.588
453.381
446.323
421.442
512.078
245.581
244.821
238.654
242.204
234.487
198.464
234.554
205.63
217.08
213.251
220.62
228.445
254.6
265.627
285.897
324.444
351.355
402.711
419.067
454.274
463.897
394.328
381.052
138.512
136.039
134.14
118.051
128.692
112.487
112.965
102.493
101.698
100.445
101.232
107.799
123.426
140.069
162.255
190.304
222.91
254.908
263.578
339.968
326.839
293.126
303.136
50.9433
49.4445
48.5469
41.7079
44.2235
35.1852
35.3524
29.7915
29.0482
28.2255
28.9996
31.9329
40.2035
51.826
64.5797
82.4703
111.126
137.712
211.561
206.855
264.275
189.29
301.864
14.3018
14.1453
14.0037
12.5714
12.6009
10.7631
9.94399
8.37911
8.22213
7.99793
8.82378
10.3148
11.9309
14.3165
18.4629
26.556
41.9993
64.2018
90.4902
116.745
150.125
79.4119
190.698
4.30524
4.29663
4.08833
3.93911
3.84891
3.33506
3.15737
2.73301
2.71366
2.61733
2.83287
3.13667
3.29339
4.63647
5.05765
8.07712
11.3697
16.351
37.6982
58.0571
90.8414
73.3668
58.2094
1.19382
1.16755
1.12619
1.07057
0.982892
0.860156
0.783042
0.686753
0.682729
0.730492
0.822573
0.97137
0.887558
1.46321
1.52533
2.27112
4.17181
5.57426
15.1102
24.5788
30.1882
0.533428
79.4813
0.154904
0.153618
0.129164
0.131722
0.123653
0.0884093
0.10473
0.120552
0.0916917
0.0990673
0.103163
0.180917
0.231318
0.288639
0.483552
0.801721
0.648288
1.09789
5.89276
6.00667
15.9045
10.4541
10.7271
-0.22976
-0.223959
-0.237543
-0.208877
-0.256338
-0.191407
-0.240929
-0.175125
-0.179806
-0.0877137
-0.118551
-0.0505399
-0.101649
0.0602932
0.0439085
0.0622578
0.353639
-0.0833652
1.20159
0.826156
0.337404
1.84397
1.05905
-0.40395
-0.41562
-0.407714
-0.362105
-0.406164
-0.327191
-0.359192
-0.314332
-0.330688
-0.274811
-0.33823
-0.256558
-0.276795
-0.276698
-0.229974
-0.255474
-0.266886
-0.382769
-0.273606
-0.151823
-0.596506
-0.364828
-0.8323
-0.548068
-0.541131
-0.542275
-0.521823
-0.533502
-0.495464
-0.493435
-0.478897
-0.454058
-0.464308
-0.447196
-0.394013
-0.433651
-0.377268
-0.404172
-0.431153
-0.511342
-0.731299
-0.915099
-0.764618
-0.82575
-0.855461
-1.1242
-0.672387
-0.666622
-0.664904
-0.645572
-0.66055
-0.615303
-0.656455
-0.599618
-0.6189
-0.575838
-0.608089
-0.631731
-0.56859
-0.617178
-0.608271
-0.659179
-0.749913
-0.852723
-0.958688
-1.04035
-0.769671
-0.879336
-0.957074
-0.833051
-0.828393
-0.830261
-0.818164
-0.811988
-0.818336
-0.806214
-0.775107
-0.749833
-0.821015
-0.717698
-0.758073
-0.749167
-0.75965
-0.751834
-0.879342
-0.824272
-0.918934
-1.04637
-0.944062
-0.937423
-0.953743
-0.91887
-0.94755
-0.929803
-0.92183
-0.909202
-0.930449
-0.897475
-0.948374
-0.88022
-0.976631
-0.887599
-0.940654
-0.925889
-0.919777
-0.954311
-1.00579
-0.935091
-1.05272
-0.971582
-1.20535
-1.0442
-1.02518
-1.00684
-0.920429
-1.11723
-1.13612
-1.12555
-1.13187
-1.10107
-1.11117
-1.04351
-1.11133
-1.08677
-1.09878
-1.0926
-1.05231
-1.09996
-1.13432
-1.07114
-1.15938
-1.18993
-1.09956
-1.20504
-1.13461
-1.12356
-1.08762
-1.04344
-1.25127
-1.25652
-1.25466
-1.2359
-1.24029
-1.23212
-1.30774
-1.18788
-1.31215
-1.19735
-1.2882
-1.21447
-1.31341
-1.22442
-1.29558
-1.2957
-1.25662
-1.33858
-1.26244
-1.26546
-1.22659
-1.20622
-1.17546
-1.43835
-1.43538
-1.422
-1.43854
-1.40641
-1.42848
-1.38262
-1.41412
-1.41377
-1.41628
-1.41682
-1.41263
-1.42753
-1.41185
-1.47377
-1.3902
-1.45603
-1.39869
-1.38834
-1.40404
-1.34493
-1.34735
-1.30859
-1.58867
-1.60108
-1.59298
-1.58076
-1.5838
-1.57037
-1.57577
-1.56293
-1.59276
-1.54117
-1.59348
-1.53221
-1.59463
-1.55574
-1.57953
-1.57564
-1.58559
-1.58877
-1.56335
-1.52821
-1.49877
-1.47285
-1.44794
-1.72878
-1.73757
-1.73356
-1.74689
-1.73698
-1.74191
-1.73584
-1.73932
-1.75077
-1.74046
-1.71388
-1.76755
-1.77201
-1.77167
-1.74699
-1.7837
-1.73596
-1.7108
-1.69248
-1.67319
-1.64219
-1.62201
-1.60605
-1.8999
-1.89332
-1.90393
-1.8961
-1.9042
-1.89017
-1.88195
-1.89282
-1.88212
-1.89169
-1.90577
-1.87067
-1.92526
-1.90134
-1.89856
-1.88532
-1.8694
-1.85941
-1.84317
-1.82744
-1.79665
-1.78658
-1.75181
-2.03287
-2.0371
-2.03991
-2.04479
-2.04558
-2.05125
-2.0522
-2.05451
-2.07268
-2.04822
-2.04193
-2.05031
-2.05605
-2.06867
-2.05963
-2.04083
-2.03376
-2.01509
-1.99222
-1.97624
-1.94568
-1.92436
-1.90588
-2.18022
-2.19687
-2.19075
-2.19234
-2.19186
-2.20077
-2.20162
-2.19679
-2.20683
-2.21811
-2.21591
-2.22622
-2.21725
-2.21094
-2.20038
-2.18456
-2.17142
-2.16059
-2.14033
-2.1225
-2.10272
-2.06853
-2.05495
-2.35644
-2.3448
-2.33055
-2.33153
-2.33719
-2.32874
-2.34724
-2.34724
-2.36159
-2.34846
-2.35022
-2.34947
-2.36426
-2.37407
-2.35497
-2.35527
-2.33289
-2.31829
-2.27877
-2.28753
-2.22821
-2.22009
-2.20489
-2.47918
-2.49053
-2.48183
-2.49984
-2.48213
-2.50617
-2.48046
-2.50606
-2.48483
-2.50748
-2.49565
-2.53056
-2.51391
-2.50693
-2.50298
-2.47527
-2.47269
-2.46027
-2.44103
-2.38478
-2.4188
-2.34396
-2.36167
-2.65413
-2.65143
-2.65503
-2.65505
-2.65648
-2.65626
-2.65717
-2.65793
-2.6572
-2.64475
-2.64558
-2.64746
-2.64877
-2.67682
-2.6572
-2.66873
-2.64041
-2.6228
-2.59574
-2.62855
-2.53191
-2.54347
-2.50626
-2.82055
-2.82268
-2.81949
-2.82434
-2.81789
-2.82442
-2.8159
-2.82338
-2.81609
-2.8207
-2.81475
-2.82269
-2.81134
-2.83058
-2.80331
-2.8161
-2.79198
-2.78522
-2.74977
-2.73377
-2.72215
-2.68781
-2.66496
-2.98256
-2.98297
-2.9829
-2.98446
-2.9837
-2.98529
-2.98349
-2.98547
-2.98226
-2.98375
-2.97942
-2.98417
-2.97958
-2.98749
-2.9827
-2.96739
-2.9738
-2.93839
-2.92204
-2.94233
-2.8808
-2.87743
-2.84086
-3.15296
-3.15397
-3.15141
-3.15315
-3.1477
-3.15159
-3.1474
-3.14994
-3.14594
-3.14831
-3.14209
-3.14753
-3.13689
-3.14802
-3.12914
-3.14627
-3.09863
-3.10233
-3.07267
-3.05125
-3.06938
-3.02821
-3.00462
-3.31489
-3.31464
-3.31499
-3.31524
-3.31641
-3.31434
-3.31441
-3.31389
-3.3123
-3.31281
-3.31017
-3.31178
-3.3068
-3.31183
-3.29743
-3.31636
-3.31901
-3.28035
-3.23974
-3.28218
-3.2341
-3.23352
-3.20544
-3.48377
-3.48378
-3.48292
-3.48278
-3.48184
-3.48153
-3.48006
-3.47979
-3.47785
-3.47736
-3.47434
-3.47413
-3.46976
-3.47017
-3.46037
-3.47367
-3.42873
-3.45967
-3.39805
-3.39483
-3.38428
-3.41473
-3.36004
-3.6484
-3.64854
-3.64814
-3.64794
-3.64779
-3.64662
-3.64658
-3.6452
-3.64479
-3.64301
-3.64344
-3.64082
-3.64188
-3.63922
-3.63979
-3.61803
-3.64249
-3.61439
-3.6483
-3.58176
-3.59141
-3.52627
-3.61402
-3.81684
-3.81665
-3.81655
-3.81593
-3.81595
-3.81466
-3.81473
-3.81243
-3.81289
-3.80934
-3.81088
-3.80485
-3.80863
-3.79858
-3.80482
-3.76729
-3.79052
-3.78326
-3.75353
-3.73366
-3.74136
-3.74736
-3.73435
-3.98279
-3.98286
-3.98248
-3.98202
-3.98191
-3.98036
-3.98067
-3.97786
-3.97915
-3.97412
-3.97746
-3.9676
-3.9767
-3.95548
-3.98508
-3.97933
-3.9913
-3.94611
-3.98499
-3.93894
-3.91124
-3.87974
-3.9666
-4.15314
-4.1529
-4.15281
-4.15192
-4.15195
-4.15016
-4.15075
-4.14752
-4.14904
-4.14385
-4.14746
-4.13889
-4.14825
-4.13063
-4.13835
-4.12238
-4.08355
-4.12187
-4.12171
-4.1195
-4.11686
-4.01191
-4.13084
-4.31892
-4.3191
-4.31867
-4.31837
-4.31831
-4.31693
-4.31709
-4.31453
-4.31558
-4.31155
-4.31427
-4.30733
-4.31085
-4.31076
-4.29412
-4.30774
-4.3463
-4.30641
-4.36883
-4.28229
-4.37888
-4.23685
-4.28395
-4.49208
-4.49198
-4.49166
-4.49102
-4.49051
-4.48893
-4.48835
-4.48607
-4.48505
-4.48244
-4.4785
-4.47788
-4.4642
-4.45869
-4.4871
-4.4507
-4.48452
-4.42868
-4.45651
-4.36493
-4.46385
-4.44649
-4.44831
-4.6564
-4.65633
-4.65634
-4.65569
-4.65598
-4.65463
-4.65523
-4.65295
-4.65469
-4.64903
-4.65665
-4.64444
-4.66615
-4.65086
-4.64524
-4.65934
-4.63888
-4.65868
-4.65849
-4.70376
-4.71334
-4.6046
-4.71509
-4.83553
-4.83517
-4.83517
-4.83408
-4.83423
-4.83216
-4.83239
-4.82903
-4.82846
-4.82589
-4.82119
-4.79836
-4.80008
-4.78318
-4.79486
-4.76934
-4.81435
-4.79365
-4.82815
-4.82496
-4.76983
-4.85637
-4.78909
-4.9904
-4.99023
-4.99077
-4.9899
-4.99148
-4.98957
-4.99285
-4.98999
-4.99568
-4.97954
-5.00052
-4.98755
-5.00786
-4.98902
-4.98799
-4.97943
-4.99725
-4.99031
-5.01328
-5.01363
-5.02169
-5.0355
-4.95322
-5.18449
-5.18409
-5.18461
-5.18301
-5.18443
-5.18045
-5.18383
-5.17418
-5.18238
-5.17
-5.17989
-5.15596
-5.1848
-5.13481
-5.17818
-5.10859
-5.14798
-5.14262
-5.1507
-5.15557
-5.18859
-5.24819
-5.18373
-5.3168
-5.31658
-5.31738
-5.31659
-5.3185
-5.3169
-5.32045
-5.3176
-5.32399
-5.31817
-5.3308
-5.32359
-5.3427
-5.32759
-5.35407
-5.34514
-5.36123
-5.34133
-5.36948
-5.38264
-5.35682
-5.41477
-5.41936
-5.54474
-5.54481
-5.54603
-5.54522
-5.54729
-5.54578
-5.54934
-5.54686
-5.5511
-5.54441
-5.54911
-5.53039
-5.53474
-5.47589
-5.49208
-5.43498
-5.42485
-5.43305
-5.46669
-5.52156
-5.54498
-5.52039
-5.58276
-5.62926
-5.62927
-5.62926
-5.62931
-5.6298
-5.62965
-5.63063
-5.63046
-5.63297
-5.63686
-5.64056
-5.65503
-5.66242
-5.71127
-5.71127
-5.75506
-5.76938
-5.75716
-5.79878
-5.75375
-5.74923
-5.88151
-5.75746
390.98
256.743
386.766
435.037
332.059
340.606
432.235
375.252
270.145
154.685
337.588
285.965
184.885
186.032
217.372
249.583
139.899
115.905
127.682
122.051
54.7789
43.1934
57.4421
45.771
14.0602
12.1431
15.3456
12.8207
4.01745
0.0139567
0.708381
5.16933
-0.645746
0.119508
1.15752
0.944034
-1.04701
-0.588929
-0.778367
-0.614359
-0.86959
-0.705726
-0.574747
-0.499284
-0.663663
-0.733331
-0.672804
-0.567517
-1.04835
-0.911877
-0.856917
-0.747814
-0.993814
-0.985889
-0.97024
-0.939813
-1.14936
-1.12559
-1.11329
-1.0868
-1.27876
-1.24222
-1.23511
-1.22831
-1.42856
-1.41531
-1.40273
-1.38293
-1.58058
-1.57766
-1.55805
-1.55413
-1.71712
-1.70053
-1.69745
-1.67798
-1.88753
-1.90409
-1.85998
-1.87064
-2.02918
-2.02305
-2.04228
-2.02983
-2.1963
-2.18835
-2.17976
-2.15087
-2.3386
-2.32847
-2.3286
-2.33183
-2.50002
-2.49191
-2.48191
-2.46634
-2.64434
-2.62941
-2.61464
-2.61397
-2.82624
-2.81318
-2.79997
-2.78162
-2.98388
-2.97435
-2.96338
-2.95477
-3.18333
-3.17985
-3.16477
-3.16782
-3.33745
-3.31358
-3.30039
-3.27452
-3.55049
-3.57521
-3.5566
-3.62062
-3.6958
-3.68847
-3.66612
-3.66728
-3.90805
-3.89784
-3.92962
-3.82641
-4.08161
-4.0962
-4.05429
-4.1246
-4.2384
-4.17067
-4.26721
-4.16495
-4.50942
-4.53734
-4.54844
-4.67475
-4.68556
-4.6574
-4.66333
-4.64965
-4.87953
-4.88946
-4.8208
-4.9616
-5.03439
-5.02194
-5.04743
-5.03928
-5.28565
-5.28113
-5.31986
-5.25652
-5.39683
-5.47314
-5.47729
-5.51727
-5.54318
-5.61457
-5.67712
-5.7026
-5.8628
-5.89803
-5.84668
-5.87923
436.017
398.096
373.504
351.591
356.508
362.438
368.777
368.029
371.136
370.386
370.552
372.975
384.075
417.154
416.741
410.321
435.408
412.153
479.477
387.188
330.829
338.471
354.684
363.115
363.21
369.842
369.219
370.146
370.033
369.077
364.089
363.716
358.695
376.752
372.734
411.27
401.389
446.639
275.706
336.479
254.751
271.242
335.442
349.241
366.636
367.538
369.541
370.668
364.998
356.595
359.912
380.841
373.202
382.143
401.325
393.13
237.538
208.833
203.424
337.713
157.383
296.806
307.62
339.166
355.739
369.575
365.521
351.56
324.002
369.552
388.306
381.359
379.637
389.802
411.022
298.294
205.118
-9.55978
178.627
111.429
266.228
258.138
235.671
248.023
344.932
345.799
313.777
270.394
330.508
403.785
371.391
354.483
353.755
468.047
596.283
91.1516
7.45339
92.9252
-6.79078
137.354
105.294
123.154
180.756
321.825
254.581
302.038
302.372
334.059
366.208
313.985
285.065
444.519
540.436
729.698
16.652
27.7819
-18.1238
38.6723
38.885
59.7721
126.86
80.1851
114.127
131.695
176.335
276.188
296.576
473.695
233.48
272.816
476.424
532.417
640.463
6.70081
1.66654
5.57832
4.00606
5.53343
10.3676
26.9004
27.6371
78.2088
70.4936
78.0563
180.84
206.793
180.101
317.833
229.068
438.582
559.028
627.433
1.21875
0.91024
0.472474
0.499664
0.675488
2.03623
6.66958
17.3196
17.0629
65.3519
87.9182
127.558
125.344
163.992
104.298
201.269
451.831
539.274
533.822
-0.460894
0.00411368
-0.140227
0.155676
0.247242
0.166796
2.2001
7.02935
15.2108
42.4351
67.7628
80.104
96.1885
67.5949
150.744
324.163
384.855
427.717
484.306
-0.564176
-0.258221
-0.307433
-0.0603379
0.00919652
-0.82392
0.499755
2.50766
9.40083
27.8024
43.2712
67.7285
54.7788
67.0782
108.92
216.563
291.697
375.684
411.271
-0.560465
-0.451089
-0.296802
-0.221774
-0.0845804
-0.437894
-0.527026
-0.372981
9.41422
8.81608
40.7631
38.1801
20.6465
49.274
87.9753
191.503
238.752
306.238
337.624
-0.741042
-0.718535
-0.626858
-0.415704
-0.534154
-1.13195
-0.636349
4.96911
5.20085
10.4812
-1.93614
26.878
29.8746
46.2612
87.2449
136.501
180.632
237.914
265.942
-0.901549
-0.845822
-0.723445
-0.893766
-0.965766
-0.819229
-1.22875
-0.777687
0.969047
1.87201
1.75323
10.2905
16.7912
34.0913
67.5656
89.5709
143.875
176.315
203.578
-1.05782
-1.04737
-1.03205
-0.902359
-0.905098
-1.01386
-0.753109
-0.952478
-0.65291
-0.505619
0.51445
0.343179
3.28892
26.7407
48.8791
70.2788
98.4611
133.242
155.603
-1.20889
-1.172
-1.14586
-1.14759
-1.12873
-1.11374
-1.16405
-1.16878
-1.25159
-1.3834
-1.01425
1.63313
7.81247
10.3881
23.5146
55.5805
78.1833
102.16
116.577
-1.36464
-1.31442
-1.2791
-1.2291
-1.26626
-1.30814
-1.15672
-1.24863
-1.14742
-1.20422
-0.80336
-0.506991
2.21158
8.84359
25.5698
32.8242
59.1144
81.1298
90.5666
-1.53961
-1.5361
-1.51608
-1.53163
-1.46205
-1.55668
-1.50772
-1.35909
-1.41754
-1.39842
-1.11283
-0.609455
2.56158
2.52507
-2.48311
20.1218
33.9021
61.5348
63.8344
-1.65963
-1.70187
-1.66593
-1.62494
-1.61851
-1.63659
-1.63479
-1.61207
-1.54305
-1.75236
-1.52633
-1.4985
-0.356036
6.71003
14.1363
16.11
25.4825
51.4443
42.2542
-1.85748
-1.79287
-1.80973
-1.78681
-1.71891
-1.75182
-1.70134
-1.71392
-1.81984
-1.70234
-1.79831
-1.96625
-2.29262
2.57799
6.31393
8.07548
9.29401
37.7929
33.5589
-2.00545
-2.01273
-2.01545
-1.97411
-1.98356
-1.88928
-1.87658
-1.9882
-1.85576
-2.04447
-1.80754
-1.68353
-2.17043
-5.94595
0.976354
5.28746
6.91321
30.8473
27.6285
-2.19178
-2.13874
-2.11665
-2.07639
-2.07596
-2.02877
-2.02788
-2.00301
-2.06819
-1.87291
-1.96023
-2.10235
-1.75452
0.564396
1.41313
3.009
7.36123
18.1993
14.2941
-2.27494
-2.25923
-2.2627
-2.25002
-2.21478
-2.1986
-2.20804
-2.24856
-2.19992
-2.16363
-2.45845
-2.97535
-2.79843
-2.0522
-0.137727
1.15295
3.61184
10.6557
7.83936
-2.44825
-2.40892
-2.38167
-2.39269
-2.3759
-2.37984
-2.39881
-2.3055
-2.31081
-2.44016
-2.29929
-2.31882
-2.40174
-3.25986
-1.76771
-0.689822
7.64062
5.93759
11.4119
-2.60704
-2.57772
-2.59162
-2.54223
-2.55409
-2.56349
-2.54264
-2.52135
-2.47082
-2.4101
-2.6741
-2.45069
-2.5321
-0.546641
-1.10149
-0.0357127
6.79374
0.279807
10.2188
-2.76539
-2.74181
-2.75239
-2.72066
-2.7118
-2.69223
-2.68907
-2.70913
-2.71033
-2.87038
-2.56726
-2.55372
-2.48978
-3.22985
-0.484274
1.19906
1.3244
-0.172046
7.59921
-2.93914
-2.9536
-2.86399
-2.89784
-2.88939
-2.86859
-2.81113
-2.75277
-2.69024
-2.67556
-2.71303
-2.715
-3.24454
-1.09363
-2.86009
-1.57293
1.151
1.64701
6.19657
-3.11668
-3.0451
-3.09641
-3.03751
-3.08245
-3.08354
-3.0682
-3.16548
-3.25943
-3.08085
-3.08894
-3.25411
-2.87466
-3.89895
-2.31596
1.17487
-1.03326
3.98373
2.81204
-3.27134
-3.35161
-3.21479
-3.223
-3.22241
-3.1703
-3.17797
-3.04391
-3.09501
-3.07237
-3.61732
-3.39925
-3.26268
-1.10604
-4.56693
1.32627
-1.91692
4.07908
1.04239
-3.34581
-3.4553
-3.40827
-3.38897
-3.3912
-3.35274
-3.34492
-3.48836
-3.25971
-3.40662
-3.84485
-3.72954
-4.04056
-3.75023
-1.44709
2.17856
-2.3112
1.68809
4.08753
-3.65612
-3.63831
-3.64955
-3.52307
-3.58637
-3.51575
-3.54344
-3.74053
-3.6807
-3.60839
-3.62237
-3.65649
-3.68397
-1.43526
-1.24314
0.148243
-1.73823
3.43124
7.25953
-3.82741
-3.7855
-3.79479
-3.71711
-3.75953
-3.70167
-3.82813
-3.59501
-3.56077
-3.57031
-3.8122
-3.29272
-3.91372
-3.51847
-2.04245
-2.67269
-1.88041
2.20549
8.37689
-4.05102
-4.01808
-3.98412
-3.99075
-3.99736
-3.94686
-3.88767
-3.66267
-3.76553
-3.98678
-3.59964
-3.58471
-3.37062
-3.35093
-1.0622
3.13723
-0.290781
15.3951
10.5761
-4.21332
-4.06498
-4.27519
-3.9602
-4.1996
-4.23398
-4.21342
-3.91258
-4.24017
-3.98492
-3.73031
-3.7122
-5.83892
-2.9144
-0.864895
2.52639
0.441144
-3.16351
9.19471
-4.41394
-4.45969
-4.37238
-4.50831
-4.30743
-4.51173
-4.57409
-3.90461
-4.13399
-4.03205
-4.24865
-4.47345
-2.34614
-5.83341
-1.89114
3.01598
2.17332
4.97312
17.3321
-4.5441
-4.63947
-4.61022
-4.55904
-4.7669
-4.78784
-4.76556
-4.3796
-4.36605
-4.61088
-4.52907
-4.61282
-3.60245
-8.6533
-4.43912
4.45087
1.95108
-2.21111
5.74463
-4.87034
-5.07251
-4.95377
-4.85754
-4.75357
-5.22618
-4.63958
-4.66305
-4.45951
-5.25512
-5.30819
-4.40909
-3.798
-8.5159
-3.73625
3.7711
0.68493
-3.31642
40.5843
-5.14224
-4.97867
-5.30806
-5.14832
-5.41711
-5.0661
-5.07535
-4.99219
-5.16299
-5.39912
-5.28088
-4.33105
-4.2023
-11.043
-5.03815
-0.525067
-2.05016
-17.8464
-70.6683
-5.25568
-5.22904
-5.54609
-5.33386
-5.33164
-5.89755
-5.33853
-5.5303
-5.33782
-5.73892
-5.63506
-4.3936
-4.33329
-10.7011
-4.64171
-11.4585
-17.1619
-15.0277
-25.9625
-5.54481
-5.63232
-5.88153
-5.96415
-5.98428
-5.83223
-5.82705
-5.72177
-5.5979
-5.69746
-5.50404
-5.0605
-7.048
-13.4167
3.58109
-13.6467
-17.0282
-29.9944
-41.4675
-5.74403
-5.75932
-6.19085
-6.22596
-6.45268
-6.35144
-6.22921
-6.02803
-5.8388
-6.11925
-6.19079
-6.62991
-5.38199
-8.39802
-17.451
-39.2116
-44.541
-59.8676
-82.375
-5.95304
-6.38429
-6.2881
-6.46883
-6.79611
-6.69873
-6.7613
-6.64667
-6.47605
-6.32507
-6.55205
-6.64656
-8.14918
-11.9988
-27.0776
-22.9892
-44.0507
-74.0857
-130.561
)
;

boundaryField
{
    leftWall
    {
        type            calculated;
        value           nonuniform List<scalar> 
50
(
754.267
695.172
635.845
576.32
516.552
456.872
396.924
337.925
245.581
138.512
50.9433
14.3018
4.30524
1.19382
0.154904
-0.22976
-0.40395
-0.548068
-0.672387
-0.833051
-0.94755
-1.11723
-1.25127
-1.43835
-1.58867
-1.72878
-1.8999
-2.03287
-2.18022
-2.35644
-2.47918
-2.65413
-2.82055
-2.98256
-3.15296
-3.31489
-3.48377
-3.6484
-3.81684
-3.98279
-4.15314
-4.31892
-4.49208
-4.6564
-4.83553
-4.9904
-5.18449
-5.3168
-5.54474
-5.62926
)
;
    }
    rightWall
    {
        type            calculated;
        value           nonuniform List<scalar> 
50
(
1064.96
1000.28
927.914
821.216
681.712
604.616
560.247
512.078
479.477
446.639
237.538
298.294
596.283
729.698
640.463
627.433
533.822
484.306
411.271
337.624
265.942
203.578
155.603
116.577
90.5666
63.8344
42.2542
33.5589
27.6285
14.2941
7.83936
11.4119
10.2188
7.59921
6.19657
2.81204
1.04239
4.08753
7.25953
8.37689
10.5761
9.19471
17.3321
5.74463
40.5843
-70.6683
-25.9625
-41.4675
-82.375
-130.561
)
;
    }
    lowerWall
    {
        type            calculated;
        value           nonuniform List<scalar> 
62
(
783.697
783.49
782.617
773.151
774.238
759.661
762.625
751.371
758.124
759.886
795.518
827.183
816.7
834.739
854.865
864.766
920.328
890.418
955.981
980.486
1028.03
1043.95
1053.76
1024.34
962.658
912.898
844.38
774.224
711.697
639.889
582.805
453.578
319.341
449.363
494.427
545.161
525.447
499.004
490.094
494.741
506.443
528.043
514.026
545.566
450.431
388.928
377.758
368.758
373.093
376.844
384.621
388.655
385.143
392.254
402.268
402.042
480.666
427.507
466.897
574.971
686.321
1070.78
)
;
    }
    atmosphere
    {
        type            calculated;
        value           nonuniform List<scalar> 
46
(
-5.74681
-5.74733
-5.74798
-5.74776
-5.74915
-5.74864
-5.7511
-5.75027
-5.75386
-5.75381
-5.75861
-5.75996
-5.76475
-5.76595
-5.77247
-5.77683
-5.77762
-5.78566
-5.81687
-5.82195
-5.82406
-5.87978
-5.85219
-5.90591
-5.93829
-5.94599
-5.96301
-6.02974
-6.31671
-6.43566
-6.54688
-6.9076
-7.19409
-7.12132
-6.8792
-6.76945
-6.94942
-7.07813
-7.7519
-8.17751
-11.3939
-31.4346
-56.8692
-66.8916
-94.5299
-236.919
)
;
    }
    defaultFaces
    {
        type            empty;
    }
}


// ************************************************************************* //
