/*--------------------------------*- C++ -*----------------------------------*\
| =========                 |                                                 |
| \\      /  F ield         | foam-extend: Open Source CFD                    |
|  \\    /   O peration     | Version:     4.1                                |
|   \\  /    A nd           | Web:         http://www.foam-extend.org         |
|    \\/     M anipulation  |                                                 |
\*---------------------------------------------------------------------------*/
FoamFile
{
    version     2.0;
    format      ascii;
    class       volScalarField;
    location    "0.4";
    object      pd;
}
// * * * * * * * * * * * * * * * * * * * * * * * * * * * * * * * * * * * * * //

dimensions      [1 -1 -2 0 0 0 0];

internalField   nonuniform List<scalar> 
2268
(
783.697
783.49
782.617
773.151
774.238
759.661
762.625
751.371
758.124
759.886
795.518
827.183
816.7
834.739
854.865
864.766
920.328
890.418
955.981
980.486
1028.03
1043.95
1053.76
783.46
783.194
782.243
772.848
773.96
759.338
761.591
750.58
756.811
753.5
818.107
808.555
811.919
828.506
853.561
864.261
932.331
876.793
954.622
959.476
1033.52
1043.74
1050.92
782.992
782.665
781.642
772.483
773.016
758.127
761.953
748.891
756.722
749.111
808.457
802.392
813.123
827.383
850.991
857.44
919.069
886.737
958.858
984.5
1021.07
1026.4
1060
782.326
781.826
780.399
771.671
772.001
757.097
758.981
744.359
750.707
777.107
786.634
794.86
806.233
823.111
848.574
856.885
903.484
902.589
955.584
966.789
1013.49
1046.23
1050.33
781.212
780.555
778.872
770.721
769.777
754.218
759.452
747.811
738.737
777.767
778.496
788.974
803.877
820.942
843.028
858.53
899.027
909.982
958.737
981.578
998.769
1019.59
1039.04
779.506
778.364
775.77
768.081
766.522
752.633
747.749
735.201
756.109
760
768.358
778.753
796.518
814.833
838.651
856.687
891.933
910.704
945.03
961.594
1004.11
1010.29
1035.39
775.868
774.271
771.427
764.72
761.644
742.159
757.059
720.874
748.177
747.219
755.829
767.193
787.959
805.665
831.497
855.744
879.777
924.342
935.882
997.546
985.748
989.275
1022.44
769.466
767.153
762.553
753.72
750.248
740.964
727.193
722.985
725.067
725.896
735.804
747.343
771.577
793.343
822.775
850.55
884.955
911.467
941.233
948.987
1014.77
995.53
1024.17
545.566
450.431
388.928
377.758
368.758
373.093
376.844
384.621
388.655
385.143
392.254
402.268
402.042
480.666
427.507
466.897
574.971
686.321
1070.78
526.589
396.51
360.492
368.093
361.2
375.309
375.111
377.286
379.298
377.684
388.969
398.5
383.282
464.666
457.717
508.534
490.344
636.83
1019.37
500.753
381.347
363.759
368.042
369.668
370.61
372.935
374.409
378.151
380.543
384.764
383.246
387.864
450.689
495.828
520.033
513.566
589.912
961.997
492.403
384.245
364.382
368.487
367.376
364.788
371.909
373.118
379.56
381.254
383.821
376.625
384.195
445.323
513.949
504.301
490.767
535.704
871.143
497.265
395.82
368.66
366.443
367.123
367.693
372.156
372.377
375.082
381.125
387.615
379.27
383.081
453.036
522.208
493.633
479.766
489.762
748.581
507.68
421.316
375.168
369.495
365.611
366.347
370.92
370.122
371.501
377.965
387.598
384.836
398.004
461.73
521.856
487.306
466.538
458.129
690.142
534.567
427.466
367.31
371.548
371.245
363.11
369.879
368.471
369.513
374.025
383.017
388.469
406.51
452.958
530.488
488.324
460.815
446.275
665.987
581.159
442.41
402.896
372.843
368.981
362.464
369.335
368.572
370.376
372.153
380.026
389.136
432.182
448.692
506.959
492.647
455.854
439.319
639.559
746.735
743.862
735.835
736.303
725.572
683.298
715.229
678.135
683.265
676.691
685.19
699.068
737.354
759.219
790.029
838.285
872.137
926.206
944.47
982.013
994.096
926.497
914.218
666.313
657.889
650.721
615.94
623.086
585.323
574.978
541.267
520.798
508.179
506.617
532.333
588.302
643.853
703.302
769.333
834.146
879.851
896.265
980.565
973.741
944.445
958.869
392.263
382.591
374.097
338.591
336.723
298.937
281.178
246.834
224.817
210.173
208.309
228.606
277.556
341.698
422.954
540.848
691.877
794.272
910.877
936.155
1009.08
944.099
1070.1
136.989
134.545
132.546
121.604
118.978
103.544
93.6
79.0627
70.7083
65.1444
67.806
78.6792
96.3024
116.721
146.742
208.876
347.344
541.396
717.013
849.466
933.215
883.564
1025.21
46.1641
45.7251
45.4213
42.8996
41.4398
35.8504
31.9009
26.5001
23.6263
21.6502
23.6555
27.3207
31.7951
37.9262
44.648
61.048
110.746
220.495
402.605
608.831
780.845
817.915
833.9
16.8997
16.7077
16.6104
15.8483
15.1285
13.1384
11.557
9.59768
8.57476
7.99022
9.06604
10.1083
10.5424
12.0558
12.8432
16.1159
36.2294
98.4101
219.354
362.501
548.282
494.335
503.524
6.47827
6.37451
6.21146
5.9302
5.66065
4.92063
4.40744
3.8176
3.39533
3.17854
3.44845
3.55991
3.62308
3.86864
4.25477
5.80111
15.6102
48.899
107.92
148.014
256.825
216.496
175.87
2.61497
2.56037
2.42651
2.34288
2.16533
2.01772
1.81866
1.74355
1.54706
1.4949
1.41345
1.4543
1.53912
1.8643
1.98763
2.73482
7.06415
20.3149
44.677
44.2973
59.5642
58.1337
50.5427
1.31916
1.27459
1.21886
1.2303
1.14095
1.20783
1.17583
1.22069
1.20434
1.26021
1.19679
1.27847
1.25823
1.25832
1.30505
1.69184
3.89339
10.4301
19.6604
14.6671
8.71245
9.39749
9.73137
1.11215
1.11909
1.11794
1.13839
1.12672
1.16475
1.16678
1.18132
1.20616
1.19591
1.21302
1.26621
1.22657
1.28295
1.25605
1.32136
2.29859
4.65814
7.30475
4.97269
0.834468
0.804757
0.567461
1.11303
1.11879
1.12051
1.13984
1.12486
1.17011
1.12896
1.18579
1.16651
1.20957
1.17732
1.15368
1.21682
1.16823
1.17714
1.12623
1.14412
1.50419
1.62918
0.745066
1.01574
0.906077
0.828339
1.07756
1.08221
1.08035
1.09244
1.09862
1.09227
1.10439
1.1355
1.16077
1.08959
1.19291
1.15253
1.16144
1.15096
1.15877
1.03126
1.08633
0.991673
0.864233
0.966545
0.973184
0.956864
0.991737
1.08825
1.106
1.11397
1.1266
1.10535
1.13833
1.08743
1.15558
1.05917
1.1482
1.09515
1.10991
1.11602
1.08149
1.03001
1.10071
0.983077
1.06422
0.830449
0.991599
1.01062
1.02896
1.11537
1.04376
1.02488
1.03545
1.02913
1.06041
1.05429
1.11749
1.04966
1.07422
1.06222
1.06839
1.10869
1.06104
1.02668
1.08986
1.00161
0.971065
1.06143
0.955959
1.02639
1.03743
1.07338
1.11756
1.0354
1.03033
1.03292
1.05124
1.04853
1.05875
0.982913
1.09831
0.974038
1.08884
0.997987
1.07172
0.972777
1.06177
0.990612
0.990488
1.02958
0.947614
1.02375
1.02073
1.06006
1.07997
1.11073
0.974644
0.977269
0.990691
0.974237
1.00667
0.985454
1.03265
1.00159
1.00066
0.996027
0.994563
0.998756
0.983858
0.99954
0.937619
1.02123
0.955636
1.0127
1.02385
1.00851
1.0677
1.0647
1.10311
0.948345
0.935805
0.943975
0.956312
0.953333
0.967058
0.962498
0.9762
0.946385
0.99752
0.944265
1.00437
0.941951
0.980838
0.957144
0.961471
0.951503
0.948121
0.973489
1.00861
1.03806
1.06397
1.08882
0.933014
0.924205
0.928248
0.914964
0.924885
0.920023
0.926363
0.923292
0.911864
0.92212
0.948676
0.894942
0.890313
0.890455
0.915064
0.878269
0.925949
0.951041
0.969323
0.988594
1.0196
1.03979
1.05576
0.887071
0.893652
0.883039
0.890869
0.882766
0.8968
0.905063
0.894293
0.904986
0.895404
0.881414
0.916606
0.861988
0.885807
0.888471
0.901677
0.917584
0.927566
0.943801
0.959529
0.990322
1.00039
1.03516
0.879298
0.875062
0.872257
0.867372
0.866578
0.860914
0.859967
0.857654
0.839485
0.863948
0.870255
0.86192
0.856186
0.843531
0.852541
0.871332
0.878402
0.897077
0.919944
0.935924
0.966479
0.987802
1.00628
0.857141
0.840485
0.846609
0.845016
0.845502
0.836585
0.835741
0.840568
0.830529
0.819245
0.821448
0.81114
0.820114
0.826418
0.836976
0.852798
0.865942
0.876764
0.897032
0.914853
0.934637
0.968828
0.982411
0.806117
0.817749
0.832006
0.831021
0.825361
0.83381
0.815317
0.815309
0.800964
0.814097
0.812328
0.813086
0.798291
0.788485
0.807584
0.807284
0.829665
0.844259
0.883781
0.875021
0.934343
0.942467
0.957662
0.808566
0.797213
0.805917
0.787907
0.805617
0.781574
0.807289
0.78169
0.802914
0.780264
0.792097
0.757184
0.773835
0.780813
0.784762
0.812477
0.815057
0.827481
0.846717
0.902967
0.868949
0.943786
0.926088
0.758815
0.761514
0.757911
0.75789
0.756465
0.756681
0.755768
0.755009
0.755744
0.76819
0.76736
0.76548
0.764169
0.736119
0.755744
0.74421
0.772531
0.790143
0.817198
0.784387
0.881029
0.86947
0.906695
0.71759
0.715453
0.718646
0.713794
0.720242
0.713713
0.722239
0.714754
0.722047
0.717436
0.723382
0.715444
0.726797
0.707555
0.734823
0.72204
0.746156
0.752919
0.788362
0.80437
0.815984
0.850329
0.873188
0.680769
0.680358
0.680431
0.678874
0.679631
0.678035
0.679843
0.677858
0.681075
0.679576
0.683905
0.67916
0.683748
0.675845
0.680631
0.69594
0.689527
0.724937
0.741286
0.721004
0.782529
0.785905
0.822477
0.635563
0.634556
0.63711
0.635372
0.640828
0.636933
0.641124
0.63858
0.642588
0.640219
0.646436
0.640997
0.651638
0.640509
0.659385
0.642253
0.689894
0.686191
0.71585
0.737274
0.719147
0.760318
0.783914
0.59883
0.599077
0.598733
0.598478
0.597311
0.59938
0.599305
0.59983
0.601423
0.60091
0.603546
0.601936
0.60692
0.601885
0.616288
0.597357
0.594712
0.633368
0.673984
0.631539
0.679615
0.680201
0.708284
0.555147
0.555133
0.555997
0.556136
0.557073
0.557381
0.558855
0.559121
0.56106
0.561555
0.564574
0.564783
0.569159
0.568741
0.578544
0.565248
0.610181
0.579247
0.640865
0.644085
0.654633
0.624187
0.678885
0.515712
0.515567
0.51597
0.516173
0.516318
0.517489
0.517524
0.518913
0.519316
0.521102
0.520666
0.523292
0.522224
0.524888
0.524322
0.546083
0.521621
0.549717
0.51581
0.582353
0.572704
0.637845
0.550113
0.472459
0.472654
0.472752
0.473375
0.473356
0.474641
0.474577
0.476876
0.476409
0.479966
0.478421
0.484451
0.480672
0.490726
0.484479
0.522014
0.498786
0.506046
0.535775
0.555646
0.547946
0.54197
0.555007
0.431709
0.431635
0.432016
0.432479
0.432588
0.434134
0.433831
0.436637
0.435346
0.440373
0.437035
0.446901
0.437793
0.459018
0.429415
0.435171
0.423197
0.468383
0.42951
0.475562
0.503271
0.534808
0.447982
0.386552
0.386792
0.386883
0.387773
0.387746
0.389529
0.388944
0.392173
0.390647
0.395841
0.392228
0.400801
0.391437
0.409066
0.401339
0.417314
0.456141
0.417826
0.417978
0.42019
0.422861
0.527867
0.408954
0.345964
0.345785
0.346216
0.346516
0.346574
0.34796
0.347797
0.350353
0.349309
0.353336
0.350621
0.357559
0.354035
0.354131
0.370763
0.357143
0.318588
0.358475
0.296055
0.382592
0.286058
0.428159
0.380984
0.297998
0.298097
0.298422
0.299058
0.299573
0.301146
0.301726
0.304013
0.305026
0.307636
0.311583
0.312198
0.325879
0.331392
0.302977
0.339377
0.305562
0.361399
0.333575
0.425153
0.326303
0.343743
0.341776
0.25888
0.258941
0.258938
0.259586
0.259293
0.260647
0.260048
0.262323
0.26059
0.266248
0.258623
0.270835
0.249125
0.264416
0.270038
0.255937
0.276398
0.2566
0.256784
0.211519
0.202034
0.310839
0.200185
0.204939
0.2053
0.2053
0.206389
0.206241
0.208312
0.208078
0.211436
0.212012
0.214581
0.219285
0.242114
0.240393
0.257289
0.245605
0.271134
0.226121
0.246823
0.212325
0.215534
0.270794
0.184263
0.251384
0.175267
0.175437
0.17489
0.175766
0.174189
0.176099
0.172819
0.175671
0.169989
0.186122
0.165145
0.178118
0.157807
0.176641
0.177674
0.186238
0.168414
0.175354
0.152382
0.152067
0.144176
0.13028
0.212448
0.106373
0.106771
0.106254
0.107853
0.106434
0.110413
0.107031
0.116676
0.108481
0.120855
0.110973
0.134895
0.106063
0.156052
0.112675
0.182267
0.142879
0.148242
0.140161
0.135351
0.10252
0.042677
0.107129
0.0992581
0.0994692
0.098675
0.0994638
0.0975522
0.0991545
0.0956009
0.0984585
0.0920662
0.0978845
0.0852581
0.0924605
0.073354
0.0884654
0.0619792
0.0709089
0.0548217
0.0747212
0.0465796
0.0334921
0.0595442
0.00128144
-0.00330644
-0.00349208
-0.00356218
-0.00478143
-0.00396842
-0.00604331
-0.00453214
-0.00809334
-0.00560966
-0.00985165
-0.00316182
-0.00786215
0.0108571
0.00650797
0.0653564
0.0491661
0.106264
0.116396
0.1082
0.0745658
0.0197971
-0.00336493
0.0208577
-0.041511
0.0371872
0.037176
0.0371785
0.0371318
0.0366386
0.036791
0.0358161
0.0359793
0.033472
0.0295839
0.0258814
0.011415
0.00402083
-0.0448241
-0.0448318
-0.0886137
-0.102937
-0.0907213
-0.132324
-0.0871794
-0.0824003
-0.215071
-0.0910189
924.447
790.211
920.233
941.168
990.721
999.267
1090.9
1033.91
1046.04
934.806
1121.44
1069.82
1037.65
1047.31
1087.52
1127.35
947.768
944.855
976.355
984.098
499.268
513.543
561.22
590.502
173.689
178.625
194.869
216.228
58.4326
58.1061
60.8827
68.9284
16.0538
16.7065
16.1338
17.6474
3.78962
3.20557
1.91473
2.57744
0.915822
1.07969
1.21067
1.28613
1.24694
1.17728
1.2378
1.34309
0.98745
1.12392
1.17888
1.28799
1.16718
1.17511
1.19076
1.22118
1.13864
1.16274
1.17488
1.20123
1.13319
1.16991
1.17727
1.1844
1.10815
1.12138
1.13397
1.15382
1.08124
1.08415
1.10375
1.10767
1.06986
1.08645
1.08953
1.109
1.02463
1.00808
1.05219
1.04152
1.00819
1.01432
0.995081
1.00753
0.966263
0.974213
0.982803
1.01168
0.949166
0.959294
0.959164
0.955924
0.912942
0.921062
0.931062
0.946624
0.89383
0.908773
0.923548
0.924205
0.837129
0.850205
0.863431
0.881749
0.804679
0.814244
0.825231
0.833829
0.730418
0.733936
0.749046
0.746005
0.701496
0.725403
0.738638
0.76452
0.613676
0.588995
0.607661
0.543642
0.593623
0.601006
0.623387
0.622126
0.506606
0.516877
0.485105
0.588126
0.458228
0.443646
0.485397
0.415095
0.426489
0.494215
0.397677
0.499935
0.280659
0.252745
0.241638
0.115335
0.229711
0.257876
0.25195
0.265623
0.160938
0.15101
0.21967
0.0788728
0.131276
0.143728
0.11823
0.126389
0.0052117
0.00973142
-0.0290023
0.0343435
0.0192253
-0.0570872
-0.0612325
-0.101214
-0.00193108
-0.0733205
-0.135875
-0.16135
-0.196354
-0.231592
-0.180241
-0.212791
786.984
492.962
474.97
375.771
359.972
363.918
370.064
369.129
371.669
370.919
374.566
397.466
454.555
496.865
489.735
465.784
456.186
429.802
643.58
1013.92
761.041
710.377
451.307
391.764
381.498
375.264
369.878
370.804
370.692
369.735
376.838
440.601
431.438
428.075
409.845
421.863
424.281
665.641
1059.56
1091.15
974.661
786.207
704.975
586.026
464.572
370.272
370.324
371.452
365.782
386.809
484.05
435.41
390.691
396.479
408.855
448.841
513.553
1093.21
1086.39
1224.14
1006.48
1066.96
987.2
791.187
444.759
374.77
366.43
361.416
405.711
561.388
439.358
388.604
419.45
483.665
665.277
743.486
1103.04
900.939
1125.18
1063.76
1210.33
1211.03
1124.16
847.876
621.43
437.361
404.707
469.87
694.365
650.262
453.297
470.531
582.823
825.101
1113.81
797.715
637.013
863.979
791.577
986.159
1028.47
1090.41
1135.87
1153.91
767.445
751.42
821.295
1019.98
1080.47
958.054
909.997
989.367
999.418
1298.12
350.588
324.437
290.909
322.25
369.052
548.236
804.511
875.813
1014.42
924.454
983.001
1108.99
1172.48
1410.46
1187.64
1189.62
1213.32
1212.82
1344.27
97.8842
105.174
91.0079
70.4914
93.9993
175.043
315.993
428.273
797.297
724.733
723.505
853.53
923.678
1043.31
1306.45
1199.4
1357.69
1403.03
1404.39
23.5143
17.6464
12.2466
6.3338
17.6079
52.2955
107.199
178.522
312.509
362.875
313.099
414.601
501.039
838.598
1081.96
1243.37
1484.22
1387.52
1258.77
3.50887
1.66433
1.51999
1.81589
2.87305
13.2564
34.1396
69.7388
125.951
189.002
175.552
224.167
303.5
439.66
960.4
1384.7
1492.53
1367.41
1174.68
1.22124
1.52719
1.47798
1.72507
1.79461
5.35753
19.6192
49.434
91.4644
130.101
140.365
254.499
388.805
511.392
877.836
1311.02
1475.89
1420.32
1090.91
1.35014
1.45952
1.61381
1.89147
5.35323
15.081
32.4965
52.8836
80.4412
93.5336
152.205
260.874
456.967
735.102
1020.64
1394.52
1495.99
1421.54
1017.74
1.29476
1.31727
1.40894
1.6201
2.15184
4.80339
14.3663
37.3258
53.0901
73.1133
101.753
271.518
518.302
913.837
1195.16
1386.05
1463.71
1382.5
935.594
1.25945
1.31517
1.44338
1.26723
1.19523
1.78468
4.16496
12.5216
20.204
25.6226
44.0771
117.305
273.215
660.429
1072.51
1225.7
1362.52
1297
852.12
1.22964
1.24508
1.26238
1.3863
1.38109
1.27233
2.12369
4.77443
7.69955
11.1984
28.1819
68.9328
189.166
427.817
789.196
1025.62
1199.99
1200.21
798.257
1.20441
1.24192
1.26798
1.26683
1.28265
1.29764
1.24734
1.89234
2.93336
5.30242
13.4325
37.3061
93.7592
205.414
526.128
864.677
1046.46
1102.14
753.074
1.17226
1.22252
1.25763
1.3081
1.27059
1.22844
1.37986
1.36796
1.87588
2.90273
7.53472
20.4819
52.7687
137.991
383.688
744.433
947.362
1008.04
724.284
1.12217
1.12567
1.14569
1.13014
1.19973
1.1051
1.15406
1.31173
1.47229
2.60187
6.85558
16.3631
44.0004
99.3381
242.283
601.782
880.073
919.713
696.386
1.12734
1.0851
1.12104
1.16203
1.16846
1.15038
1.15218
1.1749
1.33379
1.65336
3.87255
14.6342
45.6421
106.099
209.348
466.941
829.372
855.73
666.409
1.05468
1.11929
1.10243
1.12536
1.19366
1.16079
1.21082
1.19824
1.12357
1.44611
2.18696
9.33182
38.0797
94.2928
179.354
394.61
788.41
812.703
643.282
1.03191
1.02463
1.02191
1.06337
1.05541
1.1525
1.16995
1.05588
1.18534
1.0337
2.19819
9.98995
29.3559
63.851
130.816
299.673
752.982
797.498
617.735
0.97077
1.02381
1.0459
1.0868
1.09014
1.14495
1.16324
1.19482
1.11101
1.34319
2.76659
12.4752
24.4984
48.0506
93.6287
224.66
690.815
779.962
587.857
1.01281
1.02851
1.02505
1.03847
1.07706
1.10405
1.12331
1.1259
1.13558
1.19635
1.76553
4.27061
10.8682
31.6026
79.0366
193.072
616.668
763.841
567.243
0.964689
1.00402
1.03127
1.02032
1.04002
1.04827
1.06886
1.23983
1.21903
1.07682
1.56104
2.73145
7.69481
25.8169
68.9265
169.129
539.04
747.758
562.744
0.931094
0.960417
0.946514
0.995907
0.984042
0.986255
1.04243
1.14449
1.2698
1.33759
1.45967
4.07914
12.2853
32.4557
65.8168
134.295
396.154
719.905
556.439
0.89794
0.921519
0.910945
0.942667
0.951531
0.972972
1.0151
1.08267
1.21048
1.2498
2.31188
5.29773
13.8151
32.5335
71.1651
120.471
280.273
684.154
549.109
0.849384
0.834926
0.924539
0.890681
0.899133
0.92241
1.04518
1.21083
1.43336
1.75662
2.79879
6.35866
18.564
46.7103
78.0832
113.24
225.341
639.898
546.115
0.797056
0.868619
0.817309
0.876207
0.831266
0.830179
0.885901
0.92017
1.08695
1.82998
3.69011
9.16894
24.2256
49.2866
82.8619
113.564
193.639
586.467
541.429
0.76759
0.687307
0.824122
0.815916
0.816506
0.868613
0.916124
1.22256
1.48452
2.29328
4.20624
12.5418
29.8878
58.0207
77.2745
106.559
171.902
524.137
536.42
0.818298
0.70881
0.755841
0.775141
0.772904
0.811368
0.892217
1.06514
1.68003
2.49408
4.72716
12.598
29.1114
57.2543
81.8167
104.801
159.647
468.088
534.057
0.633183
0.650996
0.639754
0.766235
0.702932
0.773549
0.80057
0.805995
1.23541
2.13873
4.34861
10.5829
28.7962
64.5966
83.8883
100.601
148.846
429.223
530.206
0.587083
0.628995
0.619705
0.697392
0.654966
0.712823
0.593564
0.923253
1.28482
2.27523
4.61579
11.1561
26.8616
59.1895
81.3203
89.6817
125.418
370.368
520.036
0.488668
0.521609
0.555573
0.548943
0.54233
0.597317
0.674795
1.00914
1.32094
2.08112
5.05088
13.105
36.1667
72.4747
87.2462
95.4732
144.289
349.877
508.266
0.451569
0.599905
0.389695
0.704686
0.475696
0.480498
0.516263
0.878773
0.849443
2.23153
6.36746
19.0642
46.2604
83.4125
91.6275
91.0402
120.779
261.532
489.414
0.376138
0.330389
0.417702
0.281771
0.506558
0.364828
0.354832
1.07102
1.02197
1.93921
4.85227
15.8258
45.9725
80.8428
91.8086
86.6425
100.874
217.782
477.335
0.371178
0.275805
0.305052
0.358287
0.217893
0.289729
0.442828
0.862756
0.963934
1.04129
3.06795
11.8309
37.4449
73.4856
88.8381
86.6376
82.4042
188.42
446.427
0.170133
-0.0320375
0.0866999
0.223285
0.407477
0.07458
0.855002
0.910686
1.21144
0.757426
2.18947
9.3089
30.3997
67.1405
87.342
84.8283
97.2973
252.129
466.143
0.0234209
0.186999
-0.122863
0.132617
-0.00961889
0.534332
0.745111
0.975187
0.991663
1.28414
2.71359
7.80175
22.1495
53.7517
81.5587
78.2486
90.2066
217.579
334.909
0.0351821
0.0618172
-0.175131
0.217807
0.43301
0.236135
0.978573
0.968192
1.42681
1.56311
2.63091
6.1631
14.8013
41.5168
75.5301
62.7151
68.7373
188.554
353.895
-0.128756
-0.21554
-0.310937
-0.064913
0.232894
0.766208
0.905663
1.05282
1.31518
1.48646
2.39981
5.08644
9.25778
22.3784
71.9893
58.447
61.2826
136.883
309.75
-0.202778
-0.195603
-0.388464
-0.0739732
0.0819963
0.509034
0.675247
0.723328
0.867239
0.50671
0.498051
0.419803
3.47772
7.37093
27.2403
27.0708
30.1701
81.6205
236.896
-0.286601
-0.687738
-0.280036
-0.0944612
0.0120475
0.416761
0.282204
0.140875
0.185201
0.296588
0.0865602
0.11135
-0.832484
-1.48622
4.01357
33.2586
22.11
19.4114
103.769
)
;

boundaryField
{
    leftWall
    {
        type            zeroGradient;
    }
    rightWall
    {
        type            zeroGradient;
    }
    lowerWall
    {
        type            zeroGradient;
    }
    atmosphere
    {
        type            totalPressure;
        rho             rho;
        psi             none;
        gamma           1;
        p0              uniform 0;
        value           nonuniform List<scalar> 
46
(
-0.0177669
-0.0182941
-0.0189385
-0.0187191
-0.0201095
-0.0195985
-0.0220613
-0.0212324
-0.0248172
-0.0247667
-0.0295733
-0.030917
-0.0357124
-0.0369132
-0.0434331
-0.0477944
-0.0485811
-0.0566244
-0.0878133
-0.0927883
-0.094621
-0.150741
-0.123148
-0.176865
-0.209253
-0.216952
-0.233972
-0.300698
-0.557221
-0.361225
-0.102095
-0.0242312
0
0
-0.0166785
-0.034608
-0.254609
-0.366182
-0.919331
-0.779982
-0.765176
0
0
0
0
0
)
;
    }
    defaultFaces
    {
        type            empty;
    }
}


// ************************************************************************* //
