/*--------------------------------*- C++ -*----------------------------------*\
| =========                 |                                                 |
| \\      /  F ield         | foam-extend: Open Source CFD                    |
|  \\    /   O peration     | Version:     4.1                                |
|   \\  /    A nd           | Web:         http://www.foam-extend.org         |
|    \\/     M anipulation  |                                                 |
\*---------------------------------------------------------------------------*/
FoamFile
{
    version     2.0;
    format      ascii;
    class       surfaceScalarField;
    location    "0.4";
    object      phi;
}
// * * * * * * * * * * * * * * * * * * * * * * * * * * * * * * * * * * * * * //

dimensions      [0 3 -1 0 0 0 0];

internalField   nonuniform List<scalar> 
4432
(
3.34113e-06
-3.34113e-06
6.21576e-06
-2.87463e-06
9.94034e-06
-3.72459e-06
1.31965e-05
-3.25613e-06
1.65375e-05
-3.34099e-06
1.9086e-05
-2.54853e-06
2.18144e-05
-2.72838e-06
2.4515e-05
-2.70059e-06
2.62177e-05
-1.70271e-06
2.33734e-05
2.84426e-06
4.06821e-05
-1.73087e-05
4.33159e-05
-2.6338e-06
4.47557e-05
-1.43982e-06
4.49912e-05
-2.35465e-07
4.40148e-05
9.76426e-07
4.25624e-05
1.45234e-06
4.50401e-05
-2.47765e-06
4.06887e-05
4.35134e-06
3.667e-05
4.01869e-06
2.90709e-05
7.59916e-06
2.22876e-05
6.78326e-06
1.18079e-05
1.04797e-05
1.18079e-05
3.351e-06
-6.69212e-06
6.25001e-06
-5.77364e-06
9.97231e-06
-7.44688e-06
1.30729e-05
-6.35677e-06
1.65314e-05
-6.79944e-06
1.96533e-05
-5.67047e-06
2.26166e-05
-5.69163e-06
2.54617e-05
-5.54568e-06
2.6393e-05
-2.63407e-06
4.43823e-05
-1.5145e-05
4.31231e-05
-1.60495e-05
4.5945e-05
-5.45571e-06
4.72637e-05
-2.75853e-06
4.71818e-05
-1.53548e-07
4.51084e-05
3.04981e-06
4.2945e-05
3.61577e-06
2.54193e-05
1.5048e-05
2.43886e-05
5.38207e-06
2.10847e-05
7.32258e-06
2.76566e-05
1.02727e-06
2.06107e-05
1.38291e-05
1.31337e-05
1.79567e-05
2.49416e-05
3.21028e-06
-9.90241e-06
6.21151e-06
-8.77487e-06
9.95312e-06
-1.11885e-05
1.29164e-05
-9.32007e-06
1.69852e-05
-1.08682e-05
2.01152e-05
-8.80052e-06
2.26623e-05
-8.23866e-06
2.59638e-05
-8.84721e-06
2.57845e-05
-2.45473e-06
4.0996e-05
-3.03565e-05
4.03605e-05
-1.5414e-05
4.23607e-05
-7.45586e-06
4.28023e-05
-3.20017e-06
4.31367e-05
-4.87922e-07
4.25884e-05
3.59806e-06
4.11913e-05
5.01293e-06
4.4655e-05
1.15843e-05
4.20617e-05
7.97535e-06
3.75277e-05
1.18566e-05
3.15092e-05
7.04575e-06
2.56595e-05
1.96788e-05
1.18368e-05
3.17794e-05
3.67784e-05
3.05704e-06
-1.29594e-05
6.36769e-06
-1.20855e-05
1.01526e-05
-1.49734e-05
1.30967e-05
-1.22643e-05
1.72945e-05
-1.5066e-05
2.01075e-05
-1.16135e-05
2.36402e-05
-1.17714e-05
2.47274e-05
-9.9344e-06
4.08275e-05
-1.85548e-05
3.6669e-05
-2.6198e-05
3.61693e-05
-1.49143e-05
3.63683e-05
-7.65486e-06
3.62796e-05
-3.11144e-06
3.61156e-05
-3.23898e-07
3.64774e-05
3.23625e-06
3.60703e-05
5.42001e-06
3.78085e-05
9.8461e-06
3.66294e-05
9.15448e-06
3.49434e-05
1.35426e-05
2.88762e-05
1.31129e-05
2.28457e-05
2.57093e-05
1.21406e-05
4.24845e-05
4.8919e-05
2.81194e-06
-1.57714e-05
6.39094e-06
-1.56645e-05
1.0273e-05
-1.88555e-05
1.33052e-05
-1.52964e-05
1.69835e-05
-1.87443e-05
1.94704e-05
-1.41004e-05
2.34082e-05
-1.57092e-05
2.36673e-05
-1.01935e-05
3.6718e-05
-3.16055e-05
3.34559e-05
-2.29359e-05
3.32583e-05
-1.47167e-05
3.33224e-05
-7.71904e-06
3.32707e-05
-3.05968e-06
3.30052e-05
-5.83699e-08
3.25143e-05
3.72709e-06
3.10236e-05
6.91075e-06
3.06284e-05
1.02412e-05
2.77634e-05
1.20195e-05
2.7474e-05
1.3832e-05
2.77066e-05
1.28804e-05
2.40058e-05
2.941e-05
1.20454e-05
5.4445e-05
6.09644e-05
2.86126e-06
-1.86327e-05
6.63634e-06
-1.94396e-05
1.0389e-05
-2.26081e-05
1.30442e-05
-1.79517e-05
1.63995e-05
-2.20996e-05
2.0173e-05
-1.78739e-05
2.12025e-05
-1.67387e-05
3.44714e-05
-2.34624e-05
3.1772e-05
-2.89061e-05
3.20504e-05
-2.32143e-05
3.20996e-05
-1.47659e-05
3.25329e-05
-8.1523e-06
3.21326e-05
-2.65945e-06
3.15788e-05
4.95417e-07
3.12688e-05
4.03709e-06
3.00987e-05
8.08092e-06
2.98796e-05
1.04603e-05
2.85471e-05
1.3352e-05
2.70024e-05
1.53767e-05
1.32198e-05
2.66629e-05
2.41923e-05
1.84376e-05
1.18596e-05
6.67777e-05
7.2824e-05
3.02886e-06
-2.16615e-05
6.61837e-06
-2.30291e-05
9.92232e-06
-2.5912e-05
1.26757e-05
-2.07051e-05
1.62609e-05
-2.56847e-05
1.81134e-05
-1.97264e-05
1.84094e-05
-1.70347e-05
3.08347e-05
-3.58876e-05
3.07115e-05
-2.87829e-05
3.14481e-05
-2.39509e-05
3.23015e-05
-1.56193e-05
3.26625e-05
-8.51333e-06
3.20636e-05
-2.06049e-06
3.17915e-05
7.67437e-07
3.19927e-05
3.83587e-06
3.10633e-05
9.01033e-06
2.92427e-05
1.2281e-05
2.78112e-05
1.47834e-05
2.44468e-05
1.87411e-05
2.81996e-05
2.29102e-05
1.37346e-05
3.29026e-05
1.19774e-05
6.85349e-05
8.48013e-05
3.39749e-06
-2.5059e-05
6.79613e-06
-2.64277e-05
9.80002e-06
-2.89159e-05
1.24272e-05
-2.33323e-05
1.60657e-05
-2.93232e-05
1.63769e-05
-2.00376e-05
2.94559e-05
-3.01138e-05
2.94079e-05
-3.58396e-05
3.10199e-05
-3.03949e-05
3.22727e-05
-2.52037e-05
3.29089e-05
-1.62554e-05
3.33854e-05
-8.98989e-06
3.31881e-05
-1.86317e-06
3.33809e-05
5.74657e-07
3.30743e-05
4.14249e-06
3.19892e-05
1.00954e-05
3.13571e-05
1.29131e-05
3.11857e-05
1.49547e-05
2.89274e-05
2.09995e-05
1.43255e-05
3.75121e-05
2.7778e-05
1.945e-05
2.22729e-05
7.40401e-05
0.000107074
-0.000310543
0.000310543
-0.000585344
0.000274802
-0.000640883
5.55389e-05
-0.000621918
-1.89658e-05
-0.000594726
-2.71918e-05
-0.000572807
-2.19188e-05
-0.000554169
-1.86383e-05
-0.000533163
-2.10058e-05
-0.000512438
-2.07253e-05
-0.000485672
-2.67658e-05
-0.000453877
-3.17943e-05
-0.000419047
-3.48309e-05
-0.00037792
-4.11264e-05
-0.00032457
-5.33503e-05
-0.000171408
-0.000153162
-0.000141705
-2.97028e-05
-0.000202054
6.03489e-05
-0.000140234
-6.18202e-05
-0.000140234
-0.000208493
0.000519036
-0.000292621
0.000358929
-0.000185985
-5.10972e-05
-0.000147835
-5.71158e-05
-0.000101636
-7.33907e-05
-0.000147954
2.43991e-05
-0.000133935
-3.26575e-05
-0.000116966
-3.79749e-05
-0.000100784
-3.69071e-05
-0.00011288
-1.46697e-05
-0.000155968
1.12933e-05
-0.000197519
6.72067e-06
-0.00013553
-0.000103115
-0.000132704
-5.61764e-05
-0.000152928
-0.000132939
-0.000141719
-4.09117e-05
-9.65753e-05
1.52054e-05
-9.1995e-05
-6.64005e-05
-0.000232229
-0.000109539
0.000628574
-9.49804e-05
0.000344371
-7.75053e-05
-6.85726e-05
-0.000121596
-1.30245e-05
-0.000215542
2.05542e-05
-0.000203293
1.21502e-05
-0.00018032
-5.56301e-05
-0.000169231
-4.90644e-05
-0.000145196
-6.09417e-05
-0.000133416
-2.64497e-05
-0.000142765
2.06426e-05
-0.000160848
2.48034e-05
-0.000175974
-8.79894e-05
-9.12625e-05
-0.000140888
-0.000110427
-0.000113774
-0.000119454
-3.18848e-05
-8.66518e-05
-1.7597e-05
-6.17028e-05
-9.13496e-05
-0.000293931
-4.63199e-05
0.000674894
5.15522e-05
0.000246499
2.99055e-05
-4.69262e-05
-6.90869e-05
8.59683e-05
-9.0749e-05
4.22161e-05
-3.72632e-05
-4.13356e-05
-2.16492e-05
-7.12441e-05
-5.64091e-05
-1.43045e-05
-0.000116542
-8.08481e-07
-0.000107529
-3.54631e-05
-8.31075e-05
-3.77899e-06
-8.51897e-05
2.68856e-05
-8.54167e-05
-8.77625e-05
-6.80979e-05
-0.000158207
-5.27019e-05
-0.00012917
-9.02455e-05
5.65878e-06
-6.32153e-05
-4.46272e-05
-5.3617e-05
-0.000100948
-0.000347548
7.38723e-05
0.000601022
0.000288003
3.23682e-05
0.000246947
-5.87078e-06
0.000354463
-2.15466e-05
0.000362942
3.3736e-05
0.000222813
9.87939e-05
5.66529e-05
9.49157e-05
-2.84158e-05
7.07641e-05
-4.09057e-05
1.16815e-05
-8.75709e-05
1.1202e-05
-7.57426e-05
-1.56073e-05
-3.16138e-05
-1.72433e-05
-3.74632e-05
-8.19131e-05
-1.76838e-05
-0.000177986
2.13716e-05
-0.000168225
1.20761e-05
1.49542e-05
-3.16779e-05
-8.73177e-07
-2.91201e-05
-0.000103506
-0.000376668
0.000313401
0.000287621
0.000306479
3.92896e-05
0.000220098
8.05098e-05
0.000156382
4.21701e-05
0.000192111
-1.99332e-06
7.98203e-05
0.000211084
1.19861e-05
0.00016275
-4.12083e-05
0.000123958
-8.83066e-06
-2.06962e-05
-6.50655e-06
8.87788e-06
-2.54397e-05
3.32582e-06
-1.64955e-05
-2.61875e-05
4.4568e-06
-0.000102865
1.40989e-05
-0.000187628
2.21004e-05
-0.000176227
4.51572e-05
-8.10251e-06
-9.75554e-06
5.40396e-05
-2.23197e-05
-9.09414e-05
-0.000398988
0.000193907
9.3714e-05
0.000179724
5.34726e-05
0.000304612
-4.43785e-05
0.000315779
3.10025e-05
0.000193391
0.000120395
0.000137994
0.000266481
5.95127e-05
0.000241231
1.7162e-06
0.000181755
9.0773e-06
-2.80572e-05
2.06633e-05
-2.7081e-06
2.48353e-05
-8.46192e-07
1.36195e-05
-1.49717e-05
2.01575e-05
-0.000109403
3.95967e-05
-0.000207068
2.81793e-05
-0.000164809
4.97795e-05
-2.97027e-05
4.45286e-05
5.92905e-05
-6.15491e-06
-4.02578e-05
-0.000405143
9.80869e-05
-4.37294e-06
0.000123183
2.83764e-05
0.000114559
-3.57547e-05
0.000171812
-2.625e-05
0.000172182
0.000120025
0.00028727
0.000151393
0.000184295
0.000344206
0.00014426
0.00022179
7.90168e-05
3.71862e-05
5.07518e-05
2.55568e-05
3.51092e-05
1.47964e-05
4.87146e-05
-2.85771e-05
3.02678e-05
-9.09566e-05
4.79796e-05
-0.00022478
5.45034e-05
-0.000171333
4.82423e-05
-2.34416e-05
4.04389e-05
6.70938e-05
-3.5577e-06
3.73876e-06
-0.000408701
7.04786e-06
-3.21069e-05
1.35045e-05
-3.28844e-05
1.86301e-05
-3.40415e-05
2.58581e-05
-3.05603e-05
3.01238e-05
-3.35889e-05
5.18294e-05
-4.17432e-05
5.92488e-05
-3.75332e-05
6.29889e-05
-3.95797e-05
6.70754e-05
-3.44815e-05
7.07617e-05
-2.889e-05
7.49639e-05
-2.04576e-05
7.61874e-05
-1.02134e-05
7.6188e-05
-1.86379e-06
7.6388e-05
3.7463e-07
7.41711e-05
6.3594e-06
7.08486e-05
1.3418e-05
6.3209e-05
2.05527e-05
6.15833e-05
1.65804e-05
6.21401e-05
2.04427e-05
7.71341e-05
2.25181e-05
5.18356e-05
4.47485e-05
9.0803e-05
3.50727e-05
0.000101536
9.63416e-05
6.38776e-06
-3.84946e-05
1.32017e-05
-3.96983e-05
1.86e-05
-3.94398e-05
3.4821e-05
-4.67814e-05
4.30241e-05
-4.1792e-05
5.15748e-05
-5.0294e-05
5.91633e-05
-4.51217e-05
6.72436e-05
-4.76599e-05
7.56744e-05
-4.29123e-05
8.2037e-05
-3.52526e-05
8.66396e-05
-2.50602e-05
8.68493e-05
-1.0423e-05
8.70259e-05
-2.04041e-06
8.52147e-05
2.18583e-06
8.47351e-05
6.83904e-06
8.35391e-05
1.46139e-05
8.25525e-05
2.15394e-05
8.10966e-05
1.80363e-05
7.03757e-05
3.11636e-05
4.22947e-05
5.05991e-05
6.46143e-05
2.24289e-05
6.75251e-05
3.21619e-05
6.39525e-05
0.000105108
8.4812e-06
-4.69758e-05
1.63259e-05
-4.7543e-05
2.57334e-05
-4.88473e-05
3.26846e-05
-5.37326e-05
4.11889e-05
-5.02963e-05
4.91185e-05
-5.82235e-05
5.94063e-05
-5.54095e-05
6.69403e-05
-5.51939e-05
7.27838e-05
-4.87559e-05
7.72989e-05
-3.97676e-05
7.92376e-05
-2.69989e-05
8.29104e-05
-1.40959e-05
8.69189e-05
-6.04889e-06
8.78273e-05
1.27747e-06
8.83757e-05
6.29065e-06
9.11054e-05
1.18841e-05
9.18448e-05
2.08e-05
8.41764e-05
2.57047e-05
8.33615e-05
3.19784e-05
8.84306e-05
4.553e-05
6.25879e-05
4.82716e-05
6.65815e-05
2.81683e-05
5.23896e-05
7.81444e-05
4.19752e-06
-5.11733e-05
7.97978e-06
-5.13253e-05
1.1433e-05
-5.23005e-05
1.23097e-05
-5.46092e-05
1.69795e-05
-5.49662e-05
1.91337e-05
-6.03777e-05
2.05574e-05
-5.68332e-05
2.01397e-05
-5.47762e-05
1.74408e-05
-4.6057e-05
1.39935e-05
-3.63203e-05
1.03031e-05
-2.33085e-05
1.53215e-05
-1.91143e-05
2.74033e-05
-1.81307e-05
3.89183e-05
-1.02375e-05
4.77545e-05
-2.54557e-06
6.25445e-05
-2.90592e-06
7.95521e-05
3.79245e-06
8.65991e-05
1.86576e-05
8.69391e-05
3.16385e-05
9.17736e-05
4.06955e-05
0.000114364
2.56816e-05
0.00011374
2.87921e-05
4.4554e-05
0.000121575
1.1164e-06
-5.22897e-05
2.98546e-06
-5.31943e-05
4.62254e-06
-5.39376e-05
6.36867e-06
-5.63554e-05
1.00338e-05
-5.86313e-05
1.13841e-05
-6.17279e-05
1.32629e-05
-5.8712e-05
1.45343e-05
-5.60477e-05
1.21117e-05
-4.36343e-05
7.45145e-06
-3.16601e-05
-5.86384e-07
-1.52707e-05
-8.04842e-06
-1.16523e-05
-6.11182e-06
-2.00673e-05
-8.4001e-06
-7.94919e-06
-7.03941e-06
-3.90626e-06
8.28282e-06
-1.82281e-05
4.51706e-05
-3.30953e-05
6.50953e-05
-1.26708e-06
7.32906e-05
2.34431e-05
7.82295e-05
3.57566e-05
5.44186e-05
4.94925e-05
5.73936e-05
2.58171e-05
6.72833e-06
9.52193e-05
1.41683e-06
-5.37066e-05
2.77319e-06
-5.45507e-05
4.45186e-06
-5.56163e-05
5.99887e-06
-5.79024e-05
7.64429e-06
-6.02768e-05
8.84553e-06
-6.29292e-05
9.6318e-06
-5.94983e-05
9.33312e-06
-5.5749e-05
7.45971e-06
-4.17609e-05
5.71342e-06
-2.99138e-05
3.28629e-07
-9.88588e-06
-8.37604e-06
-2.94763e-06
-1.07008e-05
-1.77425e-05
-2.01646e-05
1.51457e-06
-2.44592e-05
3.88388e-07
-2.04701e-05
-2.22172e-05
2.51066e-08
-5.35905e-05
1.78661e-05
-1.91081e-05
3.35067e-05
7.80256e-06
4.81782e-05
2.10852e-05
6.2296e-05
3.53746e-05
9.17043e-05
-3.59112e-06
6.36833e-06
9.20643e-05
8.45412e-07
-5.4552e-05
5.3113e-07
-5.42364e-05
7.1467e-07
-5.57998e-05
6.57776e-07
-5.78455e-05
-3.48776e-06
-5.61312e-05
-6.4005e-06
-6.00164e-05
-1.01346e-05
-5.57642e-05
-1.74996e-05
-4.83839e-05
-2.31775e-05
-3.6083e-05
-2.57765e-05
-2.73148e-05
-2.54509e-05
-1.02115e-05
-1.72919e-05
-1.11066e-05
-1.69493e-05
-1.80851e-05
-4.04824e-06
-1.13865e-05
6.35124e-06
-1.00111e-05
3.33355e-06
-1.91995e-05
-1.33219e-05
-3.69351e-05
1.46239e-05
-4.70539e-05
3.26467e-05
-1.02203e-05
7.59591e-05
-2.22272e-05
0.000111806
-4.72327e-07
0.000119531
-1.13163e-05
6.89306e-06
0.000119006
-2.59671e-06
-5.19553e-05
-5.06084e-06
-5.17723e-05
-5.95149e-06
-5.49092e-05
-1.19752e-05
-5.18217e-05
-1.13569e-05
-5.67495e-05
-1.46911e-05
-5.66823e-05
-1.12967e-05
-5.91586e-05
-1.89702e-05
-4.07104e-05
-2.41152e-05
-3.0938e-05
-3.80497e-05
-1.33803e-05
-3.01023e-05
-1.81589e-05
-2.47906e-05
-1.64183e-05
-2.5149e-05
-1.77268e-05
-3.76601e-05
1.12471e-06
-2.38523e-05
-2.38189e-05
-6.47843e-06
-3.65734e-05
1.64459e-05
-5.98594e-05
2.30267e-05
-5.36347e-05
3.48177e-05
-2.20113e-05
3.3718e-05
-2.11275e-05
8.23005e-05
-4.90548e-05
8.11342e-05
-1.015e-05
3.17931e-06
8.48479e-05
-6.96895e-06
-4.49863e-05
-1.01582e-05
-4.8583e-05
-1.10756e-05
-5.39918e-05
-1.88041e-05
-4.40932e-05
-1.62423e-05
-5.93113e-05
-1.87695e-05
-5.4155e-05
-2.22155e-05
-5.57126e-05
-3.34275e-05
-2.94984e-05
-4.0768e-05
-2.35974e-05
-4.12912e-05
-1.28571e-05
-2.28296e-05
-3.66205e-05
-2.21363e-05
-1.71117e-05
-1.55193e-05
-2.43438e-05
-7.01316e-06
-7.3814e-06
5.63224e-06
-3.64643e-05
4.40123e-06
-3.53424e-05
9.77768e-06
-6.52358e-05
2.19802e-05
-6.58373e-05
3.69261e-05
-3.69571e-05
2.21253e-05
-6.32671e-06
2.44039e-05
-5.13335e-05
3.4672e-05
-2.04181e-05
-2.30415e-05
6.08929e-05
-8.13052e-06
-3.68558e-05
-1.77185e-05
-3.8995e-05
-1.68621e-05
-5.48482e-05
-2.00743e-05
-4.0881e-05
-2.43822e-05
-5.50034e-05
-1.96986e-05
-5.88387e-05
-2.30025e-05
-5.24087e-05
-2.46575e-05
-2.78434e-05
-3.16756e-05
-1.65794e-05
-2.46826e-05
-1.98501e-05
-2.39417e-05
-3.73614e-05
-3.25378e-05
-8.51558e-06
-3.33846e-05
-2.34969e-05
-1.3792e-05
-2.6974e-05
-2.15763e-05
-2.86799e-05
-1.01188e-05
-4.68e-05
-6.45959e-06
-6.8895e-05
1.10834e-06
-7.34052e-05
9.10183e-06
-4.49506e-05
7.97616e-06
-5.20104e-06
-1.89177e-05
-2.44396e-05
-2.23001e-05
-1.70357e-05
-3.1742e-05
-1.35996e-05
-6.89649e-06
-2.99593e-05
-1.30174e-05
-3.28741e-05
-9.67019e-06
-5.81954e-05
-1.20029e-05
-3.85482e-05
-1.68256e-05
-5.01807e-05
-1.53315e-05
-6.03327e-05
-1.27608e-05
-5.49795e-05
-1.66021e-05
-2.4002e-05
-1.94654e-05
-1.37161e-05
-2.52082e-05
-1.41072e-05
-4.50548e-05
-1.75149e-05
-3.05361e-05
-2.30342e-05
-4.31552e-05
-1.08779e-05
-3.25616e-05
-3.75676e-05
-3.34153e-05
-2.78262e-05
-4.70097e-05
-3.32056e-05
-5.37875e-05
-6.21172e-05
-6.70984e-05
-6.00943e-05
-9.65279e-05
-1.55212e-05
-6.4619e-05
-3.71098e-05
-8.89375e-05
-1.21158e-07
-9.27822e-05
-1.3191e-05
-1.27902e-05
-0.000111734
-6.02088e-06
-2.39384e-05
-7.36501e-06
-3.153e-05
-3.09685e-06
-6.24636e-05
-9.82664e-06
-3.18184e-05
-1.41172e-05
-4.58902e-05
-1.23173e-05
-6.21325e-05
-1.69011e-05
-5.03957e-05
-2.54807e-05
-1.54224e-05
-3.41391e-05
-5.05768e-06
-2.7852e-05
-2.03943e-05
-3.86915e-05
-6.6754e-06
-3.87772e-05
-2.29485e-05
-4.7245e-05
-2.41012e-06
-4.31348e-05
-4.16778e-05
-4.47004e-05
-2.62605e-05
-3.82515e-05
-3.96545e-05
-7.24423e-05
-2.79264e-05
-9.59792e-05
-3.65574e-05
-6.41785e-05
-4.73218e-05
-8.68988e-05
-1.43895e-05
-7.81484e-05
-8.87159e-06
-6.18708e-05
-2.94685e-05
-1.08074e-05
-6.38535e-05
-1.17477e-05
-1.21907e-05
-4.26932e-06
-3.90083e-05
-2.54182e-06
-6.41911e-05
-8.15647e-06
-2.62038e-05
-9.57749e-06
-4.44691e-05
-2.2062e-05
-4.96481e-05
-3.14682e-05
-4.09894e-05
-3.69832e-05
-9.90742e-06
-2.8015e-05
-1.40259e-05
-3.42056e-05
-1.42037e-05
-3.63204e-05
-4.56069e-06
-3.97477e-05
-1.95211e-05
-4.61141e-05
3.95627e-06
-6.48286e-05
-2.29633e-05
-6.69782e-05
-2.41109e-05
-5.45368e-05
-5.2096e-05
-5.35708e-05
-2.88925e-05
-5.96741e-05
-3.0454e-05
-6.33703e-05
-4.36257e-05
-5.69039e-05
-2.08559e-05
-3.84927e-05
-2.72828e-05
-6.40078e-05
-3.95338e-06
9.30682e-06
-8.41221e-05
1.27737e-05
-2.49644e-05
1.12952e-05
-3.75299e-05
-1.24327e-05
-4.04632e-05
-1.32342e-05
-2.54022e-05
-2.74779e-05
-3.02254e-05
-2.03882e-05
-5.67378e-05
-4.02456e-05
-2.1132e-05
-2.75903e-05
-2.25627e-05
-3.01761e-05
-1.14401e-05
-2.68254e-05
-1.75543e-05
-2.16135e-05
-9.77267e-06
-3.23445e-05
-8.79012e-06
-2.70527e-05
-1.33549e-06
-2.94735e-05
-2.05426e-05
-4.73633e-05
-6.22104e-06
-3.90508e-05
-6.04085e-05
-4.17747e-05
-2.61685e-05
-5.63637e-05
-1.58651e-05
-6.37597e-05
-3.62296e-05
-5.58919e-05
-2.87237e-05
-5.45079e-05
-2.86668e-05
-5.99167e-05
1.45544e-06
4.10531e-06
-5.47152e-05
-5.92871e-06
-1.90356e-05
-2.60695e-06
-4.08516e-05
-6.71427e-06
-3.63558e-05
-7.31348e-06
-2.4803e-05
-9.10348e-06
-2.84354e-05
-3.56953e-05
-3.0146e-05
-2.94292e-05
-2.73981e-05
-3.94164e-05
-1.25755e-05
-3.14248e-05
-1.94317e-05
-3.53888e-05
-1.35903e-05
-3.08653e-05
-1.42961e-05
-3.35958e-05
-6.05964e-06
-2.44297e-05
-1.05016e-05
-3.02569e-05
-1.47154e-05
-2.27555e-05
-1.37225e-05
-5.49205e-05
-2.82435e-05
-4.71323e-05
-3.39568e-05
-3.08675e-05
-3.21298e-05
-4.71707e-05
-1.99264e-05
-3.8354e-05
-3.75404e-05
-3.54737e-05
-3.15471e-05
-3.13738e-05
-2.64439e-06
3.04811e-06
-3.03166e-05
-1.1495e-06
-1.78861e-05
-2.68955e-06
-3.93116e-05
-7.80722e-06
-3.12381e-05
-8.32962e-06
-2.42806e-05
-1.2866e-05
-2.3899e-05
-1.81283e-05
-2.48838e-05
-2.90396e-05
-1.64867e-05
-3.45687e-05
-7.04639e-06
-4.12216e-05
-1.27788e-05
-3.92539e-05
-1.5558e-05
-3.79591e-05
-1.55909e-05
-3.90334e-05
-4.98531e-06
-3.99736e-05
-9.56146e-06
-4.16866e-05
-1.30024e-05
-2.70396e-05
-2.83694e-05
-4.20227e-05
-1.32604e-05
-2.70393e-05
-4.89402e-05
-4.03839e-05
-1.87852e-05
-2.15605e-05
-3.87499e-05
-1.03472e-05
-4.87537e-05
-1.23767e-05
-2.95176e-05
-5.2908e-06
-9.73028e-06
3.26392e-06
-5.50658e-06
5.40032e-06
-2.32865e-05
-4.67705e-07
-3.34435e-05
-6.5216e-06
-2.51842e-05
-7.94549e-06
-2.28567e-05
-7.5881e-06
-2.42564e-05
-1.42415e-05
-1.82303e-05
-1.7629e-05
-1.30993e-05
-2.14956e-05
-3.17978e-06
-2.34187e-05
-1.08557e-05
-2.71339e-05
-1.18427e-05
-2.67629e-05
-1.59619e-05
-3.57203e-05
3.97208e-06
-2.94489e-05
-1.58329e-05
-3.85052e-05
-3.94607e-06
-1.8944e-05
-4.79306e-05
-1.27727e-05
-1.94317e-05
-2.96468e-05
-3.20661e-05
-2.35913e-05
-2.48408e-05
-8.571e-06
-5.37701e-05
-7.99324e-06
-4.93314e-05
-2.28111e-06
-3.52297e-05
-3.60375e-06
-8.40762e-06
2.85284e-06
-3.19264e-06
-1.59572e-05
-7.32923e-06
-4.69118e-06
-4.47096e-05
3.07828e-06
-3.29537e-05
-1.16712e-06
-1.86113e-05
-6.72161e-06
-1.87019e-05
-9.8308e-06
-1.51211e-05
-1.11069e-05
-1.18232e-05
-2.06639e-05
6.37724e-06
-1.77439e-05
-1.37758e-05
-1.56986e-05
-1.3888e-05
-2.20346e-05
-9.62596e-06
-1.63556e-05
-1.70689e-06
-2.81253e-05
-4.06316e-06
-2.52943e-05
-6.77713e-06
-3.21951e-05
-4.10298e-05
-2.23519e-05
-2.9275e-05
-2.77175e-05
-2.67004e-05
-2.95782e-06
-4.96005e-05
-4.92835e-07
-5.62351e-05
1.94166e-06
-5.17659e-05
5.21267e-06
-3.85007e-05
1.17027e-05
-1.48977e-05
6.04537e-06
8.5102e-06
-6.58491e-06
-7.4432e-07
-1.03763e-05
-4.09182e-05
-9.49016e-06
-3.38398e-05
-1.50591e-05
-1.30423e-05
-4.63618e-06
-2.91248e-05
-1.20375e-05
-7.71979e-06
-1.62659e-05
-7.59481e-06
-1.24197e-05
2.53104e-06
-1.88112e-05
-7.38425e-06
-1.11391e-05
-2.15601e-05
-1.37783e-05
-6.98676e-06
-2.34849e-05
7.99968e-06
-2.23697e-05
-5.17836e-06
-2.02196e-05
-8.92724e-06
-2.50231e-05
-3.62262e-05
-1.41868e-05
-4.01113e-05
-1.58347e-06
-3.93038e-05
-1.80837e-07
-5.10031e-05
3.35808e-06
-5.9774e-05
8.15461e-06
-5.65625e-05
8.98742e-06
-3.93335e-05
4.35343e-06
-1.02637e-05
8.53837e-06
1.86045e-06
-4.5769e-06
3.83258e-06
-4.34797e-06
-4.11471e-05
-7.91294e-06
-3.02748e-05
-5.10784e-06
-1.58474e-05
-7.06139e-06
-2.71713e-05
-7.87644e-06
-6.90473e-06
-9.56018e-06
-5.91107e-06
-1.45291e-05
7.49993e-06
-9.92419e-06
-1.19891e-05
-1.17114e-05
-1.97728e-05
-1.51591e-05
-3.53905e-06
-1.44719e-05
7.31243e-06
-1.93824e-05
-2.67814e-07
-1.14576e-05
-1.68521e-05
-7.86662e-06
-3.98172e-05
-1.17346e-05
-3.62433e-05
-6.62336e-06
-4.4415e-05
-1.36212e-06
-5.62644e-05
2.66314e-06
-6.37993e-05
4.72677e-06
-5.86261e-05
3.47925e-06
-3.8086e-05
2.13444e-06
-8.91883e-06
3.93876e-06
6.73408e-06
-5.45515e-06
9.28774e-06
-6.20244e-06
-4.03998e-05
-1.30437e-05
-2.34335e-05
-5.06448e-06
-2.38267e-05
-8.91875e-06
-2.3317e-05
-5.80996e-06
-1.00135e-05
-8.19453e-06
-3.5265e-06
-5.29599e-06
4.6014e-06
-1.31077e-05
-4.17742e-06
-2.54142e-07
-3.26264e-05
1.36285e-07
-3.92947e-06
-5.63093e-06
1.30796e-05
-1.06269e-05
4.72815e-06
-5.9098e-06
-2.15692e-05
-6.40819e-06
-3.93188e-05
-2.68364e-06
-3.99679e-05
1.23085e-06
-4.83295e-05
2.44515e-06
-5.74787e-05
3.17458e-06
-6.45287e-05
3.38831e-06
-5.88398e-05
2.79063e-07
-3.49767e-05
2.68982e-06
-1.13296e-05
-7.80395e-07
7.40899e-06
-2.46742e-06
1.17552e-05
-3.5217e-06
-3.93455e-05
-1.13879e-06
-2.58164e-05
-6.7876e-06
-1.81779e-05
-3.6931e-06
-2.64115e-05
-5.05753e-06
-8.64907e-06
1.23598e-06
-9.82e-06
6.77893e-06
-9.41552e-07
2.51034e-06
9.11746e-08
-1.68624e-06
-2.84298e-05
-2.29947e-06
-3.31625e-06
-2.82986e-06
1.361e-05
5.83488e-06
-3.93658e-06
5.66447e-06
-2.13988e-05
1.98045e-06
-3.56348e-05
1.4865e-06
-3.94739e-05
3.68596e-06
-5.0529e-05
5.52843e-06
-5.93211e-05
8.13303e-06
-6.71333e-05
3.39793e-06
-5.41047e-05
2.39902e-06
-3.39778e-05
5.858e-06
-1.47885e-05
-9.46267e-06
1.45403e-05
1.72632e-05
-5.50802e-06
-6.06771e-07
-2.14755e-05
-8.6897e-06
-1.77335e-05
-5.87e-06
-2.09975e-05
-1.58763e-05
-1.64052e-05
-9.15048e-06
-1.53749e-05
-9.35859e-06
-9.61189e-06
-3.57927e-06
-6.72087e-06
1.35452e-06
-4.84261e-06
8.96365e-07
-2.79717e-05
-2.05325e-06
-3.66635e-07
-3.3216e-06
1.48784e-05
8.07697e-06
-1.53352e-05
4.24586e-06
-1.75676e-05
2.96356e-06
-3.43525e-05
5.6848e-06
-4.21952e-05
7.88715e-06
-5.27314e-05
8.14108e-06
-5.95751e-05
1.17484e-05
-7.07406e-05
1.02707e-05
-5.2627e-05
1.89026e-06
-2.55974e-05
1.36551e-05
-2.65534e-05
-6.61353e-06
1.0806e-05
3.16895e-06
-8.67696e-06
1.21828e-06
-1.95248e-05
1.6437e-06
-1.81589e-05
-5.77221e-07
-1.87766e-05
-9.89278e-07
-1.59931e-05
4.08105e-08
-1.64049e-05
2.04519e-06
-1.16163e-05
6.48786e-06
-1.11635e-05
1.19677e-05
-1.03225e-05
-1.54237e-06
-1.44616e-05
1.07017e-06
-2.97918e-06
1.98774e-05
-3.92887e-06
1.31854e-05
-8.64309e-06
1.94682e-05
-2.38504e-05
2.13793e-05
-3.62637e-05
8.55794e-06
-2.93738e-05
1.28556e-05
-5.70291e-05
1.78951e-05
-6.46145e-05
1.57002e-05
-6.85458e-05
-6.69569e-07
-3.62572e-05
1.84309e-06
-2.811e-05
-4.39594e-07
-2.42707e-05
-1.0222e-05
3.16887e-06
8.62102e-07
-9.53905e-06
-8.87061e-07
-1.77757e-05
-1.53807e-06
-1.75079e-05
-2.57464e-06
-1.774e-05
-2.73015e-06
-1.58376e-05
-3.01121e-06
-1.61239e-05
-1.03266e-06
-1.35948e-05
8.41921e-07
-1.30381e-05
2.75388e-06
-1.22344e-05
1.91203e-06
-1.36197e-05
5.95558e-06
-7.02273e-06
1.13872e-05
-9.36047e-06
9.45598e-06
-6.71189e-06
1.32582e-05
-2.76526e-05
1.67346e-05
-3.97401e-05
1.22365e-05
-2.48757e-05
1.32247e-05
-5.80173e-05
1.55046e-05
-6.68944e-05
1.14377e-05
-6.44788e-05
9.25752e-06
-3.4077e-05
1.05615e-05
-2.9414e-05
1.26011e-05
-2.63102e-05
-1.41662e-05
1.65453e-05
1.40362e-06
-1.09427e-05
2.02203e-06
-1.83941e-05
2.64823e-06
-1.81341e-05
3.03883e-06
-1.81306e-05
3.30441e-06
-1.61032e-05
4.39936e-06
-1.72188e-05
5.64215e-06
-1.48376e-05
7.63697e-06
-1.50329e-05
8.46013e-06
-1.30576e-05
8.37827e-06
-1.35379e-05
1.12562e-05
-9.90066e-06
1.37256e-05
-1.18299e-05
1.58058e-05
-8.79211e-06
1.71663e-05
-2.90131e-05
2.01268e-05
-4.27006e-05
1.4143e-05
-1.88919e-05
1.5281e-05
-5.91553e-05
1.21087e-05
-6.37221e-05
9.61285e-06
-6.1983e-05
8.56937e-06
-3.30335e-05
1.3491e-05
-3.43356e-05
1.74515e-05
-3.02708e-05
-1.71127e-05
2.0398e-05
6.92387e-07
-1.1635e-05
9.31911e-07
-1.86336e-05
1.37752e-06
-1.85797e-05
1.88987e-06
-1.8643e-05
2.70291e-06
-1.69162e-05
3.4602e-06
-1.79761e-05
4.79386e-06
-1.61712e-05
6.17511e-06
-1.64142e-05
7.65868e-06
-1.45411e-05
9.29592e-06
-1.51751e-05
1.12441e-05
-1.18489e-05
1.34064e-05
-1.39922e-05
1.52058e-05
-1.05915e-05
1.79317e-05
-3.1739e-05
1.27366e-05
-3.75054e-05
1.50939e-05
-2.12492e-05
1.87301e-05
-6.27915e-05
2.11981e-05
-6.61902e-05
1.51047e-05
-5.58895e-05
1.67587e-05
-3.46875e-05
2.27929e-05
-4.03698e-05
2.58219e-05
-3.32997e-05
-1.82249e-05
2.6934e-05
1.20745e-06
-1.28425e-05
1.53481e-06
-1.89609e-05
2.55027e-06
-1.95951e-05
3.38146e-06
-1.94742e-05
5.99776e-06
-1.95325e-05
6.952e-06
-1.89303e-05
8.62092e-06
-1.78402e-05
9.83978e-06
-1.7633e-05
1.13412e-05
-1.60425e-05
1.25173e-05
-1.63512e-05
1.45114e-05
-1.38429e-05
1.62284e-05
-1.57092e-05
1.73922e-05
-1.17553e-05
1.99146e-05
-3.42614e-05
1.69962e-05
-3.4587e-05
4.47575e-05
-4.90106e-05
2.08287e-05
-3.88627e-05
2.54418e-05
-7.08033e-05
2.13671e-05
-5.18149e-05
2.85649e-05
-4.18852e-05
2.64848e-05
-3.82898e-05
3.14066e-05
-3.82214e-05
-1.89212e-05
3.21029e-05
1.5378e-06
-1.43803e-05
2.73509e-06
-2.01582e-05
3.94512e-06
-2.08051e-05
5.11497e-06
-2.0644e-05
6.2579e-06
-2.06754e-05
7.30975e-06
-1.99822e-05
8.43834e-06
-1.89687e-05
9.89452e-06
-1.90892e-05
1.17027e-05
-1.78507e-05
1.34252e-05
-1.80737e-05
1.56576e-05
-1.60753e-05
1.7773e-05
-1.78247e-05
1.99067e-05
-1.3889e-05
2.34789e-05
-3.78336e-05
2.53924e-05
-3.65005e-05
3.25364e-05
-5.61546e-05
2.54175e-05
-3.17437e-05
2.80552e-05
-7.3441e-05
8.53786e-06
-3.22975e-05
4.03254e-05
-7.36727e-05
3.25471e-05
-3.05115e-05
3.24254e-05
-3.80997e-05
-1.98396e-05
3.33438e-05
2.10995e-06
-1.64902e-05
3.95026e-06
-2.19985e-05
5.506e-06
-2.23609e-05
7.03054e-06
-2.21685e-05
8.2525e-06
-2.18974e-05
9.85606e-06
-2.15857e-05
1.15912e-05
-2.07039e-05
1.30247e-05
-2.05227e-05
1.46707e-05
-1.94967e-05
1.55894e-05
-1.89925e-05
1.73602e-05
-1.7846e-05
1.83486e-05
-1.88131e-05
1.99242e-05
-1.54646e-05
2.21358e-05
-4.00452e-05
2.76444e-05
-4.20091e-05
2.2617e-05
-5.11272e-05
5.05945e-05
-5.97212e-05
1.88396e-05
-4.1686e-05
2.67961e-05
-4.02541e-05
2.093e-05
-6.78066e-05
5.02407e-05
-5.98222e-05
4.37025e-05
-3.15616e-05
-2.78654e-05
5.17283e-05
2.01096e-06
-1.85012e-05
3.498e-06
-2.34855e-05
4.87122e-06
-2.37341e-05
6.2896e-06
-2.35869e-05
7.78255e-06
-2.33903e-05
9.2855e-06
-2.30887e-05
1.08609e-05
-2.22793e-05
1.23063e-05
-2.19681e-05
1.39778e-05
-2.11682e-05
1.475e-05
-1.97647e-05
1.6562e-05
-1.9658e-05
1.63847e-05
-1.86358e-05
1.82639e-05
-1.73438e-05
1.55899e-05
-3.73711e-05
1.93105e-05
-4.57297e-05
1.94322e-05
-5.12489e-05
3.02232e-05
-7.05122e-05
3.16749e-05
-4.31377e-05
2.37459e-05
-3.23252e-05
2.89345e-05
-7.29951e-05
3.02328e-05
-6.11205e-05
3.61392e-05
-3.7468e-05
-3.14097e-05
3.96834e-05
2.2686e-06
-2.07698e-05
3.93429e-06
-2.51512e-05
5.3707e-06
-2.51705e-05
6.94583e-06
-2.5162e-05
8.44141e-06
-2.48859e-05
9.92238e-06
-2.45697e-05
1.13591e-05
-2.3716e-05
1.28568e-05
-2.34658e-05
1.44819e-05
-2.27933e-05
1.58071e-05
-2.10899e-05
1.755e-05
-2.14009e-05
1.80015e-05
-1.90873e-05
2.09674e-05
-2.03097e-05
1.89488e-05
-3.53525e-05
2.14763e-05
-4.82572e-05
3.44085e-05
-6.4181e-05
3.57352e-05
-7.18389e-05
2.90612e-05
-3.64638e-05
2.99411e-05
-3.3205e-05
4.59284e-05
-8.89824e-05
4.73235e-05
-6.25156e-05
4.33078e-05
-3.34523e-05
-3.59636e-05
4.78618e-05
1.98345e-06
-2.27532e-05
3.44134e-06
-2.66091e-05
4.85297e-06
-2.65821e-05
6.35932e-06
-2.66684e-05
7.87895e-06
-2.64055e-05
9.68567e-06
-2.63764e-05
1.1441e-05
-2.54713e-05
1.3228e-05
-2.52527e-05
1.49689e-05
-2.45343e-05
1.74183e-05
-2.35393e-05
1.95401e-05
-2.35227e-05
2.24018e-05
-2.1949e-05
2.56084e-05
-2.35163e-05
3.06203e-05
-4.03644e-05
3.08912e-05
-4.85282e-05
3.08878e-05
-6.41776e-05
2.20368e-05
-6.29879e-05
5.49083e-05
-6.93353e-05
6.41982e-05
-4.24949e-05
2.90128e-05
-5.3797e-05
4.31088e-05
-7.66116e-05
3.64779e-05
-2.68214e-05
-7.33871e-05
7.39014e-05
1.93035e-06
-2.46836e-05
3.34115e-06
-2.80199e-05
4.74565e-06
-2.79866e-05
6.23217e-06
-2.81549e-05
7.65774e-06
-2.78311e-05
9.25335e-06
-2.7972e-05
1.06391e-05
-2.68571e-05
1.23086e-05
-2.69222e-05
1.31339e-05
-2.53596e-05
1.55109e-05
-2.59163e-05
1.57771e-05
-2.37889e-05
1.9323e-05
-2.54949e-05
1.51472e-05
-1.93405e-05
1.73487e-05
-4.2566e-05
2.08653e-05
-5.20447e-05
2.20034e-05
-6.53157e-05
3.61766e-05
-7.71612e-05
4.01618e-05
-7.33205e-05
4.66418e-05
-4.89749e-05
3.55435e-05
-4.26986e-05
4.69166e-05
-8.79847e-05
5.56731e-05
-3.55779e-05
-7.57989e-05
5.80849e-05
1.67092e-06
-2.63545e-05
2.79239e-06
-2.91414e-05
4.0654e-06
-2.92596e-05
5.33199e-06
-2.94215e-05
6.77432e-06
-2.92734e-05
8.3541e-06
-2.95517e-05
1.02476e-05
-2.87506e-05
1.22528e-05
-2.89273e-05
1.38879e-05
-2.69948e-05
1.59625e-05
-2.79908e-05
1.72244e-05
-2.50508e-05
2.05754e-05
-2.88459e-05
1.68993e-05
-1.56644e-05
1.85256e-05
-4.41923e-05
2.78243e-05
-6.13434e-05
2.97653e-05
-6.72567e-05
2.82638e-05
-7.56597e-05
2.03809e-05
-6.54376e-05
5.17734e-05
-8.03674e-05
3.63074e-05
-2.72327e-05
3.31999e-05
-8.48771e-05
3.78732e-05
-4.02512e-05
-9.29663e-05
5.50406e-05
1.68129e-06
-2.80358e-05
2.90584e-06
-3.03659e-05
4.23055e-06
-3.05843e-05
5.44748e-06
-3.06384e-05
6.79858e-06
-3.06245e-05
8.17918e-06
-3.09323e-05
1.01239e-05
-3.06954e-05
1.19178e-05
-3.07212e-05
1.46314e-05
-2.97084e-05
1.66361e-05
-2.99955e-05
1.94736e-05
-2.78884e-05
1.84242e-05
-2.77964e-05
1.94195e-05
-1.66598e-05
2.93346e-05
-5.41073e-05
2.89142e-05
-6.0923e-05
3.13445e-05
-6.9687e-05
2.09194e-05
-6.52346e-05
2.66878e-05
-7.1206e-05
3.25976e-05
-8.62772e-05
5.20243e-05
-4.66593e-05
2.21024e-05
-5.49552e-05
6.37007e-05
-8.18495e-05
-6.2745e-05
3.34793e-05
1.43858e-06
-2.94743e-05
2.56079e-06
-3.14881e-05
3.73355e-06
-3.17571e-05
4.78878e-06
-3.16936e-05
6.1242e-06
-3.19599e-05
7.17665e-06
-3.19848e-05
8.62816e-06
-3.21469e-05
1.00995e-05
-3.21925e-05
1.22061e-05
-3.18149e-05
1.3239e-05
-3.10284e-05
1.50414e-05
-2.96908e-05