/*--------------------------------*- C++ -*----------------------------------*\
| =========                 |                                                 |
| \\      /  F ield         | foam-extend: Open Source CFD                    |
|  \\    /   O peration     | Version:     4.1                                |
|   \\  /    A nd           | Web:         http://www.foam-extend.org         |
|    \\/     M anipulation  |                                                 |
\*---------------------------------------------------------------------------*/
FoamFile
{
    version     2.0;
    format      ascii;
    class       surfaceScalarField;
    location    "0.4";
    object      phi_0;
}
// * * * * * * * * * * * * * * * * * * * * * * * * * * * * * * * * * * * * * //

dimensions      [0 3 -1 0 0 0 0];

internalField   nonuniform List<scalar> 
4432
(
3.34125e-06
-3.34125e-06
6.21959e-06
-2.87834e-06
9.94803e-06
-3.72844e-06
1.32048e-05
-3.25676e-06
1.65466e-05
-3.3418e-06
1.91e-05
-2.55342e-06
2.18382e-05
-2.73824e-06
2.45552e-05
-2.71699e-06
2.62717e-05
-1.71646e-06
2.34284e-05
2.8433e-06
4.07763e-05
-1.73479e-05
4.34227e-05
-2.64643e-06
4.48739e-05
-1.45117e-06
4.51214e-05
-2.47522e-07
4.41501e-05
9.71349e-07
4.26998e-05
1.45026e-06
4.51915e-05
-2.49175e-06
4.08315e-05
4.36007e-06
3.68017e-05
4.02973e-06
2.91709e-05
7.63083e-06
2.23643e-05
6.8066e-06
1.18529e-05
1.05114e-05
1.18529e-05
3.35144e-06
-6.69268e-06
6.25366e-06
-5.78056e-06
9.97978e-06
-7.45456e-06
1.3081e-05
-6.35802e-06
1.65414e-05
-6.80217e-06
1.96703e-05
-5.6823e-06
2.26412e-05
-5.70915e-06
2.54988e-05
-5.57462e-06
2.6442e-05
-2.65965e-06
4.44755e-05
-1.51902e-05
4.32188e-05
-1.60912e-05
4.60579e-05
-5.48548e-06
4.73938e-05
-2.78708e-06
4.73197e-05
-1.73412e-07
4.52444e-05
3.04665e-06
4.30775e-05
3.61711e-06
2.55033e-05
1.50825e-05
2.4468e-05
5.39535e-06
2.11562e-05
7.34156e-06
2.77621e-05
1.02493e-06
2.06963e-05
1.38723e-05
1.31849e-05
1.80229e-05
2.50377e-05
3.21155e-06
-9.90423e-06
6.21476e-06
-8.78377e-06
9.95923e-06
-1.1199e-05
1.29254e-05
-9.32421e-06
1.69981e-05
-1.08749e-05
2.01312e-05
-8.8154e-06
2.2685e-05
-8.26288e-06
2.60015e-05
-8.89113e-06
2.58305e-05
-2.48873e-06
4.10781e-05
-3.04378e-05
4.04503e-05
-1.54634e-05
4.24752e-05
-7.51038e-06
4.29375e-05
-3.24933e-06
4.32812e-05
-5.17101e-07
4.27315e-05
3.59639e-06
4.13316e-05
5.01691e-06
4.48053e-05
1.16088e-05
4.22008e-05
7.99994e-06
3.76452e-05
1.18971e-05
3.16092e-05
7.06099e-06
2.57463e-05
1.97352e-05
1.1881e-05
3.18882e-05
3.69188e-05
3.05944e-06
-1.29637e-05
6.37099e-06
-1.20953e-05
1.01571e-05
-1.49852e-05
1.31059e-05
-1.2273e-05
1.7309e-05
-1.5078e-05
2.01249e-05
-1.16313e-05
2.3665e-05
-1.1803e-05
2.47559e-05
-9.98206e-06
4.08861e-05
-1.86189e-05
3.67338e-05
-2.62855e-05
3.62474e-05
-1.49771e-05
3.6477e-05
-7.73996e-06
3.64087e-05
-3.181e-06
3.62562e-05
-3.64608e-07
3.66214e-05
3.23114e-06
3.62154e-05
5.42297e-06
3.79585e-05
9.86564e-06
3.67697e-05
9.18874e-06
3.50705e-05
1.35963e-05
2.89822e-05
1.31493e-05
2.29257e-05
2.57917e-05
1.21865e-05
4.26273e-05
4.91053e-05
2.81415e-06
-1.57778e-05
6.39405e-06
-1.56752e-05
1.02772e-05
-1.88683e-05
1.33122e-05
-1.5308e-05
1.69963e-05
-1.87621e-05
1.94885e-05
-1.41235e-05
2.34327e-05
-1.57471e-05
2.36916e-05
-1.0241e-05
3.67639e-05
-3.16913e-05
3.35165e-05
-2.30381e-05
3.33358e-05
-1.47963e-05
3.34344e-05
-7.83857e-06
3.3398e-05
-3.14468e-06
3.31418e-05
-1.08364e-07
3.2661e-05
3.71197e-06
3.11773e-05
6.90666e-06
3.07824e-05
1.02605e-05
2.79054e-05
1.20657e-05
2.76095e-05
1.38922e-05
2.78337e-05
1.29252e-05
2.41028e-05
2.95226e-05
1.20939e-05
5.46363e-05
6.11992e-05
2.86154e-06
-1.86394e-05
6.63859e-06
-1.94523e-05
1.0393e-05
-2.26227e-05
1.30506e-05
-1.79656e-05
1.64106e-05
-2.2122e-05
2.01906e-05
-1.79035e-05
2.12216e-05
-1.67782e-05
3.45039e-05
-2.35233e-05
3.18164e-05
-2.90038e-05
3.21124e-05
-2.3334e-05
3.21835e-05
-1.48674e-05
3.26421e-05
-8.29721e-06
3.22632e-05
-2.76573e-06
3.17218e-05
4.32981e-07
3.14265e-05
4.00724e-06
3.02681e-05
8.06512e-06
3.00494e-05
1.04792e-05
2.87098e-05
1.34053e-05
2.71578e-05
1.54442e-05
1.33002e-05
2.67827e-05
2.43073e-05
1.85155e-05
1.19076e-05
6.70359e-05
7.31068e-05
3.0267e-06
-2.16661e-05
6.61975e-06
-2.30453e-05
9.92406e-06
-2.5927e-05
1.26799e-05
-2.07214e-05
1.62708e-05
-2.57129e-05
1.81277e-05
-1.97603e-05
1.8428e-05
-1.70785e-05
3.08694e-05
-3.59647e-05
3.07546e-05
-2.88891e-05
3.15103e-05
-2.40897e-05
3.23919e-05
-1.5749e-05
3.27753e-05
-8.68065e-06
3.21947e-05
-2.18513e-06
3.19549e-05
6.72754e-07
3.2177e-05
3.78516e-06
3.12561e-05
8.98602e-06
2.94329e-05
1.23024e-05
2.79935e-05
1.48446e-05
2.4601e-05
1.88367e-05
2.83628e-05
2.3021e-05
1.38042e-05
3.3074e-05
1.20273e-05
6.88129e-05
8.51341e-05
3.39537e-06
-2.50614e-05
6.79752e-06
-2.64475e-05
9.7994e-06
-2.89289e-05
1.24278e-05
-2.33498e-05
1.60731e-05
-2.93582e-05
1.63871e-05
-2.00743e-05
2.94799e-05
-3.01714e-05
2.94382e-05
-3.59229e-05
3.10609e-05
-3.05118e-05
3.23352e-05
-2.5364e-05
3.30029e-05
-1.64167e-05
3.35087e-05
-9.18644e-06
3.33482e-05
-2.02464e-06
3.35543e-05
4.66655e-07
3.32683e-05
4.07121e-06
3.2191e-05
1.00633e-05
3.15607e-05
1.29328e-05
3.13842e-05
1.50211e-05
2.91051e-05
2.11159e-05
1.44199e-05
3.77062e-05
2.7932e-05
1.95619e-05
2.23759e-05
7.43691e-05
0.00010751
-0.000311143
0.000311143
-0.000588332
0.000277189
-0.000643547
5.52159e-05
-0.000624966
-1.85815e-05
-0.000598278
-2.66881e-05
-0.000576595
-2.16835e-05
-0.000558801
-1.77932e-05
-0.000536488
-2.23127e-05
-0.000514619
-2.18695e-05
-0.000488035
-2.65842e-05
-0.000455527
-3.25078e-05
-0.000419886
-3.56411e-05
-0.000378408
-4.14781e-05
-0.000325256
-5.31513e-05
-0.000172599
-0.000152658
-0.000142532
-3.0067e-05
-0.000202985
6.04534e-05
-0.000140656
-6.23293e-05
-0.000140656
-0.000209115
0.000520256
-0.000296953
0.000365028
-0.000191174
-5.05636e-05
-0.000151212
-5.85435e-05
-0.000103252
-7.46489e-05
-0.000150004
2.50685e-05
-0.00013607
-3.17268e-05
-0.000119241
-3.91421e-05
-0.00010218
-3.89301e-05
-0.000111843
-1.69208e-05
-0.000153548
9.19685e-06
-0.000196025
6.83532e-06
-0.000136096
-0.000101407
-0.000133564
-5.56833e-05
-0.000153855
-0.000132366
-0.000142617
-4.13054e-05
-9.71706e-05
1.50071e-05
-9.20936e-05
-6.74063e-05
-0.000232749
-0.000110014
0.00063027
-9.35842e-05
0.000348599
-7.91754e-05
-6.49729e-05
-0.00012278
-1.49382e-05
-0.000217845
2.04156e-05
-0.000206426
1.36496e-05
-0.000182519
-5.56336e-05
-0.000171058
-5.06034e-05
-0.000147259
-6.27291e-05
-0.000134719
-2.94607e-05
-0.000143342
1.7819e-05
-0.000162343
2.58371e-05
-0.000178227
-8.55231e-05
-9.30031e-05
-0.000140908
-0.000112013
-0.000113356
-0.000120319
-3.3e-05
-8.70816e-05
-1.82297e-05
-6.18937e-05
-9.25942e-05
-0.000294643
-4.69106e-05
0.000677181
5.50523e-05
0.000246636
2.69072e-05
-3.68281e-05
-7.16617e-05
8.36311e-05
-9.58562e-05
4.46098e-05
-4.24348e-05
-3.97718e-05
-2.24134e-05
-7.5655e-05
-5.60219e-05
-1.69948e-05
-0.000116108
-2.64316e-06
-0.000108819
-3.67501e-05
-8.44285e-05
-6.57111e-06
-8.63877e-05
2.77963e-05
-8.62128e-05
-8.5698e-05
-6.98545e-05
-0.000157266
-5.4814e-05
-0.000128397
-9.14213e-05
3.60727e-06
-6.35125e-05
-4.61385e-05
-5.37417e-05
-0.000102365
-0.000348385
7.84879e-05
0.000598693
0.000282391
4.27325e-05
0.000249567
-4.00391e-06
0.000360423
-2.72247e-05
0.000370665
3.43672e-05
0.000222447
0.000108447
5.15427e-05
9.52489e-05
-2.90707e-05
6.36185e-05
-3.98542e-05
8.14031e-06
-8.69151e-05
1.03107e-05
-7.66765e-05
-1.68098e-05
-3.25099e-05
-1.63703e-05
-3.85732e-05
-7.96347e-05
-1.97117e-05
-0.000176127
2.00369e-05
-0.000168145
1.09229e-05
1.27213e-05
-3.24294e-05
-2.78615e-06
-2.91096e-05
-0.000105685
-0.000377494
0.000316024
0.000282668
0.000318788
3.99677e-05
0.000232695
8.2088e-05
0.000162892
4.25791e-05
0.000201244
-3.98436e-06
8.03882e-05
0.000229302
8.49808e-06
0.000167139
-4.33728e-05
0.000115489
-7.99363e-06
-2.72387e-05
-5.86531e-06
8.18241e-06
-2.58376e-05
3.16244e-06
-1.71602e-05
-2.50478e-05
4.23739e-06
-0.000101032
1.39384e-05
-0.000185828
2.18963e-05
-0.000176103
4.36173e-05
-8.99973e-06
-1.04963e-05
5.13275e-05
-2.20984e-05
-9.40826e-05
-0.000399593
0.000193249
8.94189e-05
0.000181132
5.20854e-05
0.000306166
-4.29469e-05
0.000314065
3.46802e-05
0.000191881
0.0001182
0.000141323
0.000279861
6.98738e-05
0.000238588
6.61493e-06
0.000178748
1.129e-05
-3.19137e-05
2.09694e-05
-1.4969e-06
2.44029e-05
-2.71074e-07
1.28244e-05
-1.34693e-05
2.02308e-05
-0.000108439
3.99382e-05
-0.000205536
2.84164e-05
-0.000164582
5.00962e-05
-3.06795e-05
4.46398e-05
5.67839e-05
-6.30429e-06
-4.31385e-05
-0.000405897
9.51989e-05
-5.78007e-06
0.000119755
2.75293e-05
0.000112423
-3.56153e-05
0.000170921
-2.38173e-05
0.000170808
0.000118312
0.000296987
0.000153682
0.000187764
0.000347811
0.000147231
0.000219282
8.11983e-05
3.41188e-05
5.12446e-05
2.84568e-05
3.52525e-05
1.5721e-05
4.82457e-05
-2.64625e-05
3.05881e-05
-9.07809e-05
4.84247e-05
-0.000223373
5.48825e-05
-0.000171039
4.86078e-05
-2.44047e-05
4.06857e-05
6.4706e-05
-4.03848e-06
1.58567e-06
-0.000409935
7.04673e-06
-3.21082e-05
1.35046e-05
-3.29053e-05
1.86337e-05
-3.4058e-05
2.5873e-05
-3.05891e-05
3.01401e-05
-3.36253e-05
5.18526e-05
-4.17868e-05
5.92883e-05
-3.76071e-05
6.30402e-05
-3.96749e-05
6.71532e-05
-3.46248e-05
7.08836e-05
-2.90943e-05
7.5178e-05
-2.07111e-05
7.64755e-05
-1.0484e-05
7.64732e-05
-2.02231e-06
7.67694e-05
1.70388e-07
7.46207e-05
6.21994e-06
7.13262e-05
1.33578e-05
6.36639e-05
2.0595e-05
6.20177e-05
1.66673e-05
6.25646e-05
2.05689e-05
7.75976e-05
2.26732e-05
5.21012e-05
4.50583e-05
9.12069e-05
3.52633e-05
0.000101994
9.6723e-05
6.38605e-06
-3.84942e-05
1.31965e-05
-3.97158e-05
1.85885e-05
-3.945e-05
3.47994e-05
-4.68e-05
4.30098e-05
-4.18357e-05
5.15479e-05
-5.03249e-05
5.91279e-05
-4.5187e-05
6.72463e-05
-4.77933e-05
7.57288e-05
-4.31073e-05
8.21944e-05
-3.55599e-05
8.68695e-05
-2.53862e-05
8.71359e-05
-1.07503e-05
8.73645e-05
-2.25088e-06
8.563e-05
1.90492e-06
8.5252e-05
6.59786e-06
8.41124e-05
1.44974e-05
8.31078e-05
2.15997e-05
8.16446e-05
1.81306e-05
7.08158e-05
3.13978e-05
4.25294e-05
5.09596e-05
6.49377e-05
2.26499e-05
6.78322e-05
3.23689e-05
6.42964e-05
0.00010553
8.5003e-06
-4.69945e-05
1.63666e-05
-4.75821e-05
2.57963e-05
-4.88797e-05
3.27406e-05
-5.37444e-05
4.1293e-05
-5.0388e-05
4.93018e-05
-5.83338e-05
5.96441e-05
-5.55293e-05
6.72621e-05
-5.54114e-05
7.3233e-05
-4.90782e-05
7.78799e-05
-4.02067e-05
7.98529e-05
-2.73592e-05
8.34543e-05
-1.43517e-05
8.7404e-05
-6.20062e-06
8.83543e-05
9.54657e-07
8.90577e-05
5.89443e-06
9.18896e-05
1.16655e-05
9.26536e-05
2.08356e-05
8.48931e-05
2.58911e-05
8.3984e-05
3.23069e-05
8.8977e-05
4.59666e-05
6.28912e-05
4.87358e-05
6.68371e-05
2.84229e-05
5.27477e-05
7.83857e-05
4.27732e-06
-5.12718e-05
8.11785e-06
-5.14226e-05
1.16125e-05
-5.23743e-05
1.25386e-05
-5.46705e-05
1.72286e-05
-5.50781e-05
1.94126e-05
-6.05177e-05
2.0863e-05
-5.69797e-05
2.04417e-05
-5.499e-05
1.77799e-05
-4.64164e-05
1.44074e-05
-3.68343e-05
1.08102e-05
-2.37621e-05
1.58891e-05
-1.94305e-05
2.80345e-05
-1.8346e-05
3.95634e-05
-1.05743e-05
4.85396e-05
-3.08174e-06
6.35821e-05
-3.37705e-06
8.05159e-05
3.9018e-06
8.73572e-05
1.90499e-05
8.7539e-05
3.2125e-05
9.2262e-05
4.12436e-05
0.000114985
2.60125e-05
0.000114213
2.91955e-05
4.49755e-05
0.000121985
1.11537e-06
-5.23872e-05
2.96869e-06
-5.32759e-05
4.60001e-06
-5.40056e-05
6.36649e-06
-5.6437e-05
1.00249e-05
-5.87365e-05
1.13688e-05
-6.18617e-05
1.32785e-05
-5.88894e-05
1.45971e-05
-5.63087e-05
1.22457e-05
-4.4065e-05
7.66689e-06
-3.22555e-05
-3.67245e-07
-1.57279e-05
-7.80763e-06
-1.19902e-05
-5.86527e-06
-2.02884e-05
-7.89496e-06
-8.54457e-06
-6.56364e-06
-4.41306e-06
9.32025e-06
-1.92609e-05
4.64391e-05
-3.32171e-05
6.60677e-05
-5.78641e-07
7.40013e-05
2.41913e-05
7.87918e-05
3.64531e-05
5.46244e-05
5.018e-05
5.75484e-05
2.62715e-05
6.95982e-06
9.55641e-05
1.40149e-06
-5.37887e-05
2.75374e-06
-5.46282e-05
4.43355e-06
-5.56854e-05
5.97506e-06
-5.79785e-05
7.65434e-06
-6.04157e-05
8.88054e-06
-6.30879e-05
9.74863e-06
-5.97575e-05
9.57159e-06
-5.61316e-05
7.78487e-06
-4.22782e-05
6.04339e-06
-3.0514e-05
6.43635e-07
-1.03282e-05
-8.15699e-06
-3.18954e-06
-1.04388e-05
-1.80066e-05
-1.96517e-05
6.68272e-07
-2.36329e-05
-4.31837e-07
-1.93406e-05
-2.35532e-05
1.30891e-06
-5.38666e-05
1.84331e-05
-1.77029e-05
3.38437e-05
8.78077e-06
4.84288e-05
2.1868e-05
6.25377e-05
3.60711e-05
9.19975e-05
-3.18823e-06
6.69534e-06
9.2262e-05
8.57463e-07
-5.46462e-05
5.91547e-07
-5.43623e-05
8.2537e-07
-5.59192e-05
8.28496e-07
-5.79816e-05
-3.23944e-06
-5.63478e-05
-6.13247e-06
-6.01948e-05
-9.79772e-06
-5.60922e-05
-1.71033e-05
-4.88261e-05
-2.28001e-05
-3.65814e-05
-2.55042e-05
-2.78098e-05
-2.51981e-05
-1.06343e-05
-1.69588e-05
-1.14288e-05
-1.64512e-05
-1.85142e-05
-3.47018e-06
-1.23127e-05
6.88525e-06
-1.07873e-05
3.64361e-06
-2.03115e-05
-1.30725e-05
-3.71505e-05
1.50609e-05
-4.58363e-05
3.28781e-05
-9.03644e-06
7.63904e-05
-2.16443e-05
0.0001121
3.61759e-07
0.000119785
-1.08732e-05
7.2729e-06
0.000119207
-2.53453e-06
-5.21116e-05
-4.96063e-06
-5.19362e-05
-5.84392e-06
-5.50359e-05
-1.18177e-05
-5.20079e-05
-1.12568e-05
-5.69087e-05
-1.45314e-05
-5.69202e-05
-1.11451e-05
-5.94785e-05
-1.87825e-05
-4.11886e-05
-2.39604e-05
-3.14035e-05
-3.79177e-05
-1.38526e-05
-2.99188e-05
-1.86332e-05
-2.43994e-05
-1.69482e-05
-2.47809e-05
-1.81326e-05
-3.75327e-05
4.39051e-07
-2.34687e-05
-2.48513e-05
-6.00513e-06
-3.77751e-05
1.68222e-05
-5.99779e-05
2.32677e-05
-5.22818e-05
3.49132e-05
-2.06819e-05
3.39853e-05
-2.07164e-05
8.30837e-05
-4.87367e-05
8.18166e-05
-9.60614e-06
3.79497e-06
8.52946e-05
-6.88848e-06
-4.52231e-05
-1.0084e-05
-4.87406e-05
-1.09988e-05
-5.41211e-05
-1.8696e-05
-4.43106e-05
-1.61587e-05
-5.9446e-05
-1.86326e-05
-5.44463e-05
-2.19966e-05
-5.61145e-05
-3.32226e-05
-2.99626e-05
-4.06153e-05
-2.40107e-05
-4.11738e-05
-1.3294e-05
-2.2735e-05
-3.7072e-05
-2.19393e-05
-1.77439e-05
-1.53465e-05
-2.47254e-05
-6.616e-06
-8.29148e-06
5.93555e-06
-3.74028e-05
4.35252e-06
-3.61921e-05
9.90907e-06
-6.55344e-05
2.22106e-05
-6.45833e-05
3.70276e-05
-3.54989e-05
2.21766e-05
-5.86539e-06
2.47636e-05
-5.13237e-05
3.51061e-05
-1.99487e-05
-2.23427e-05
6.12438e-05
-8.10083e-06
-3.71223e-05
-1.77121e-05
-3.91293e-05
-1.68426e-05
-5.49906e-05
-2.00262e-05
-4.1127e-05
-2.42983e-05
-5.51739e-05
-1.95685e-05
-5.9176e-05
-2.27869e-05
-5.28961e-05
-2.44808e-05
-2.82687e-05
-3.15613e-05
-1.69303e-05
-2.46156e-05
-2.02397e-05
-2.39122e-05
-3.77754e-05
-3.22903e-05
-9.36582e-06
-3.31727e-05
-2.3843e-05
-1.38508e-05
-2.76134e-05
-2.20678e-05
-2.91859e-05
-1.074e-05
-4.75199e-05
-7.03482e-06
-6.92396e-05
1.20237e-06
-7.28205e-05
9.44573e-06
-4.37422e-05
8.31159e-06
-4.73126e-06
-1.94571e-05
-2.3555e-05
-2.33189e-05
-1.60868e-05
-3.07355e-05
-1.4926e-05
-6.88432e-06
-3.0238e-05
-1.30123e-05
-3.30014e-05
-9.62381e-06
-5.8379e-05
-1.19268e-05
-3.8824e-05
-1.67186e-05
-5.03821e-05
-1.51436e-05
-6.0751e-05
-1.25672e-05
-5.54725e-05
-1.63536e-05
-2.44823e-05
-1.91895e-05
-1.40944e-05
-2.50199e-05
-1.44092e-05
-4.49491e-05
-1.78463e-05
-3.05956e-05
-2.37193e-05
-4.32931e-05
-1.11455e-05
-3.27986e-05
-3.81079e-05
-3.37725e-05
-2.8212e-05
-4.76522e-05
-3.36402e-05
-5.43186e-05
-6.25732e-05
-6.71852e-05
-5.99539e-05
-9.59577e-05
-1.49697e-05
-6.44493e-05
-3.62397e-05
-8.89158e-05
9.1154e-07
-9.24341e-05
-1.25685e-05
-1.2501e-05
-0.000110669
-6.01098e-06
-2.4227e-05
-7.3614e-06
-3.16509e-05
-3.05692e-06
-6.26835e-05
-9.74258e-06
-3.21383e-05
-1.40444e-05
-4.60803e-05
-1.2202e-05
-6.25934e-05
-1.67323e-05
-5.09421e-05
-2.52826e-05
-1.5932e-05
-3.40419e-05
-5.33501e-06
-2.77523e-05
-2.06989e-05
-3.8564e-05
-7.03451e-06
-3.87594e-05
-2.35239e-05
-4.72814e-05
-2.62347e-06
-4.32897e-05
-4.20995e-05
-4.4953e-05
-2.65487e-05
-3.85795e-05
-4.00137e-05
-7.30274e-05
-2.81253e-05
-9.65522e-05
-3.6429e-05
-6.4565e-05
-4.6957e-05
-8.67863e-05
-1.40183e-05
-7.72476e-05
-8.62715e-06
-6.10533e-05
-2.87627e-05
-1.01888e-05
-6.33655e-05
-1.17748e-05
-1.24521e-05
-4.26116e-06
-3.91645e-05
-2.40501e-06
-6.45396e-05
-8.014e-06
-2.65293e-05
-9.45427e-06
-4.464e-05
-2.18578e-05
-5.01899e-05
-3.12504e-05
-4.15495e-05
-3.70122e-05
-1.01702e-05
-2.79596e-05
-1.43876e-05
-3.41899e-05
-1.44685e-05
-3.63764e-05
-4.84805e-06
-3.97896e-05
-2.01107e-05
-4.61428e-05
3.72976e-06
-6.5038e-05
-2.32043e-05
-6.72638e-05
-2.43229e-05
-5.48327e-05
-5.24447e-05
-5.39531e-05
-2.90049e-05
-5.99253e-05
-3.04569e-05
-6.3308e-05
-4.35742e-05
-5.68965e-05
-2.04298e-05
-3.84545e-05
-2.70692e-05
-6.34129e-05
-3.80429e-06
9.39519e-06
-8.29968e-05
1.2864e-05
-2.53161e-05
1.14547e-05
-3.77553e-05
-1.22995e-05
-4.07854e-05
-1.32008e-05
-2.56279e-05
-2.73732e-05
-3.04676e-05
-2.02864e-05
-5.72767e-05
-4.03281e-05
-2.15078e-05
-2.75863e-05
-2.2912e-05
-3.02453e-05
-1.17286e-05
-2.68133e-05
-1.79005e-05
-2.15659e-05
-1.00955e-05
-3.25267e-05
-9.14994e-06
-2.71987e-05
-1.59823e-06
-2.96146e-05
-2.07884e-05
-4.75467e-05
-6.39083e-06
-3.92048e-05
-6.07866e-05
-4.19284e-05
-2.62813e-05
-5.64746e-05
-1.59106e-05
-6.38192e-05
-3.62296e-05
-5.5601e-05
-2.8648e-05
-5.39803e-05
-2.86898e-05
-5.92374e-05
1.45281e-06
4.11691e-06
-5.39591e-05
-5.98988e-06
-1.93262e-05
-2.58478e-06
-4.11604e-05
-6.66831e-06
-3.67018e-05
-7.19165e-06
-2.51046e-05
-8.90518e-06
-2.87541e-05
-3.56557e-05
-3.05261e-05
-2.93846e-05
-2.77788e-05
-3.94046e-05
-1.2892e-05
-3.14533e-05
-1.968e-05
-3.54549e-05
-1.38988e-05
-3.09109e-05
-1.46395e-05
-3.36533e-05
-6.40753e-06
-2.44864e-05
-1.07651e-05
-3.03634e-05
-1.49115e-05
-2.28248e-05
-1.39294e-05
-5.50789e-05
-2.85325e-05
-4.71613e-05
-3.41988e-05
-3.08656e-05
-3.22063e-05
-4.71085e-05
-1.99867e-05
-3.82055e-05
-3.75511e-05
-3.51704e-05
-3.17249e-05
-3.08966e-05
-2.82097e-06
2.90303e-06
-2.96827e-05
-1.14214e-06
-1.8184e-05
-2.6537e-06
-3.96488e-05
-7.75917e-06
-3.15963e-05
-8.28195e-06
-2.45818e-05
-1.28139e-05
-2.42221e-05
-1.80998e-05
-2.52402e-05
-2.90415e-05
-1.68372e-05
-3.4594e-05
-7.33939e-06
-4.12512e-05
-1.30228e-05
-3.92914e-05
-1.58586e-05
-3.80305e-05
-1.59004e-05
-3.89588e-05
-5.47922e-06
-4.00258e-05
-9.69817e-06
-4.17818e-05
-1.31555e-05
-2.71286e-05
-2.85826e-05
-4.21155e-05
-1.35456e-05
-2.70839e-05
-4.92304e-05
-4.04206e-05
-1.88696e-05
-2.14904e-05
-3.89169e-05
-1.02e-05
-4.88415e-05
-1.2111e-05
-2.98139e-05
-5.05676e-06
-9.87518e-06
2.96113e-06
-5.11484e-06
5.51004e-06
-2.36941e-05
-3.62608e-07
-3.37761e-05
-6.46126e-06
-2.54977e-05
-7.91057e-06
-2.31325e-05
-7.54827e-06
-2.45844e-05
-1.42362e-05
-1.85522e-05
-1.76233e-05
-1.34502e-05
-2.15139e-05
-3.4487e-06
-2.34483e-05
-1.10885e-05
-2.71419e-05
-1.2165e-05
-2.66757e-05
-1.63666e-05
-3.54748e-05
3.31986e-06
-2.97103e-05
-1.54627e-05
-3.8677e-05
-4.18881e-06
-1.89038e-05
-4.83558e-05
-1.27351e-05
-1.97144e-05
-2.96659e-05
-3.22996e-05
-2.35315e-05
-2.5004e-05
-8.44832e-06
-5.40001e-05
-7.69215e-06
-4.95976e-05
-1.95368e-06
-3.55523e-05
-3.2472e-06
-8.58164e-06
2.46329e-06
-2.74934e-06
-1.60497e-05
-7.64439e-06
-4.68383e-06
-4.51419e-05
3.19695e-06
-3.33784e-05
-1.07986e-06
-1.88556e-05
-6.67549e-06
-1.89887e-05
-9.83593e-06
-1.53918e-05
-1.11435e-05
-1.21426e-05
-2.06294e-05
6.0372e-06
-1.77214e-05
-1.39964e-05
-1.57289e-05
-1.41575e-05
-2.21441e-05
-9.95139e-06
-1.66373e-05
-2.18699e-06
-2.79135e-05
-4.18647e-06
-2.51568e-05
-6.94555e-06
-3.21234e-05
-4.13892e-05
-2.23475e-05
-2.94902e-05
-2.76966e-05
-2.69505e-05
-2.86093e-06
-4.98397e-05
-3.69227e-07
-5.64918e-05
2.09625e-06
-5.20631e-05
5.36357e-06
-3.88196e-05
1.20744e-05
-1.52924e-05
5.65095e-06
8.88675e-06
-6.59716e-06
-1.04721e-06
-1.03992e-05
-4.13398e-05
-9.52757e-06
-3.425e-05
-1.51286e-05
-1.32546e-05
-4.56703e-06
-2.95502e-05
-1.19798e-05
-7.97901e-06
-1.62157e-05
-7.90662e-06
-1.2466e-05
2.28745e-06
-1.88527e-05
-7.60968e-06
-1.11493e-05
-2.1861e-05
-1.37817e-05
-7.31894e-06
-2.35552e-05
7.58643e-06
-2.23926e-05
-5.34898e-06
-2.02355e-05
-9.10267e-06
-2.50372e-05
-3.65875e-05
-1.40911e-05
-4.04363e-05
-1.44283e-06
-3.95988e-05
3.67358e-08
-5.13193e-05
3.62806e-06
-6.00831e-05
8.44859e-06
-5.68836e-05
9.32935e-06
-3.97004e-05
4.60717e-06
-1.05702e-05
8.09695e-06
2.16119e-06
-4.5961e-06
3.5489e-06
-4.36096e-06
-4.1575e-05
-7.94903e-06
-3.0662e-05
-5.11875e-06
-1.60849e-05
-7.1139e-06
-2.75551e-05
-7.89488e-06
-7.19803e-06
-9.63827e-06
-6.16321e-06
-1.45662e-05
7.21534e-06
-9.85328e-06
-1.23225e-05
-1.16493e-05
-2.00649e-05
-1.51513e-05
-3.81697e-06
-1.45988e-05
7.03396e-06
-1.95065e-05
-4.41304e-07
-1.14195e-05
-1.71897e-05
-7.80904e-06
-4.01979e-05
-1.16208e-05
-3.66246e-05
-6.47319e-06
-4.47463e-05
-1.166e-06
-5.66265e-05
2.83313e-06
-6.40822e-05
4.9349e-06
-5.89854e-05
3.67517e-06
-3.84406e-05
2.2918e-06
-9.18684e-06
3.57092e-06
6.81785e-06
-5.52478e-06
9.07369e-06
-6.24566e-06
-4.0854e-05
-1.3118e-05
-2.37895e-05
-5.08981e-06
-2.41131e-05
-8.97425e-06
-2.36706e-05
-5.84076e-06
-1.03315e-05
-8.17634e-06
-3.82762e-06
-5.37092e-06
4.40993e-06
-1.32937e-05
-4.39978e-06
-3.39235e-07
-3.30194e-05
1.41471e-07
-4.29768e-06
-5.59335e-06
1.27688e-05
-1.05704e-05
4.53571e-06
-5.8536e-06
-2.19065e-05
-6.31771e-06
-3.97338e-05
-2.5755e-06
-4.03668e-05
1.3429e-06
-4.86648e-05
2.56256e-06
-5.78461e-05
3.31928e-06
-6.48389e-05
3.56032e-06
-5.92264e-05
4.61212e-07
-3.53415e-05
2.87473e-06
-1.16003e-05
-1.16174e-06
7.6074e-06
-2.38521e-06
1.14589e-05
-3.44546e-06
-3.97938e-05
-1.09481e-06
-2.61402e-05
-6.79135e-06
-1.84166e-05
-3.68704e-06
-2.67749e-05
-5.12956e-06
-8.88898e-06
1.18366e-06
-1.01408e-05
6.7634e-06
-1.16981e-06
2.5338e-06
-1.70178e-07
-1.65558e-06
-2.883e-05
-2.35594e-06
-3.59732e-06
-2.97596e-06
1.33888e-05
5.80534e-06
-4.24559e-06
5.73407e-06
-2.18352e-05
2.08422e-06
-3.6084e-05
1.58108e-06
-3.98637e-05
3.83596e-06
-5.09196e-05
5.7064e-06
-5.97166e-05
8.38003e-06
-6.75126e-05
3.6091e-06
-5.44555e-05
2.54976e-06
-3.42822e-05
6.0699e-06
-1.51205e-05
-9.84234e-06
1.47505e-05
1.72713e-05
-5.81234e-06
-7.00109e-07
-2.18224e-05
-8.79402e-06
-1.80463e-05
-5.90354e-06
-2.1307e-05
-1.59619e-05
-1.67166e-05
-9.18688e-06
-1.5664e-05
-9.42681e-06
-9.9009e-06
-3.63582e-06
-6.96079e-06
1.25182e-06
-5.05781e-06
8.2645e-07
-2.84046e-05
-2.13759e-06
-6.33278e-07
-3.29685e-06
1.4548e-05
8.11285e-06
-1.56553e-05
4.27795e-06
-1.80003e-05
3.0008e-06
-3.48068e-05
5.75611e-06
-4.2619e-05
8.00834e-06
-5.31719e-05
8.30091e-06
-6.00091e-05
1.2023e-05
-7.12347e-05
1.06006e-05
-5.3033e-05
2.08754e-06
-2.57691e-05
1.40141e-05
-2.7047e-05
-6.81568e-06
1.09875e-05
3.18685e-06
-8.99918e-06
1.21729e-06
-1.98528e-05
1.64777e-06
-1.84767e-05
-5.78878e-07
-1.90804e-05
-9.90658e-07
-1.63048e-05
3.76884e-08
-1.66923e-05
2.05599e-06
-1.19192e-05
6.53339e-06
-1.14382e-05
1.20937e-05
-1.06181e-05
-1.52574e-06
-1.47852e-05
1.10554e-06
-3.26456e-06
1.98767e-05
-4.22309e-06
1.31352e-05
-8.91381e-06
1.95042e-05
-2.43694e-05
2.1512e-05
-3.68146e-05
8.60263e-06
-2.97096e-05
1.30127e-05
-5.75819e-05
1.81302e-05
-6.51267e-05
1.60361e-05
-6.91405e-05
-4.28464e-07
-3.65685e-05
2.19337e-06
-2.83909e-05
-2.77208e-07
-2.45764e-05
-1.04172e-05
3.32434e-06
8.54378e-07
-9.85355e-06
-9.04322e-07
-1.80941e-05
-1.56242e-06
-1.78186e-05
-2.59488e-06
-1.80479e-05
-2.75685e-06
-1.61428e-05
-3.02647e-06
-1.64227e-05
-1.04974e-06
-1.38959e-05
8.35645e-07
-1.33236e-05
2.74606e-06
-1.25285e-05
1.90079e-06
-1.39399e-05
5.94733e-06
-7.31111e-06
1.13906e-05
-9.66636e-06
9.47223e-06
-6.99545e-06
1.33115e-05
-2.82087e-05
1.68247e-05
-4.03278e-05
1.23065e-05
-2.51915e-05
1.33227e-05
-5.8598e-05
1.5679e-05
-6.74831e-05
1.16237e-05
-6.50852e-05
9.41471e-06
-3.43594e-05
1.07544e-05
-2.97306e-05
1.27782e-05
-2.66003e-05
-1.44268e-05
1.67878e-05
1.40526e-06
-1.12588e-05
2.0203e-06
-1.87091e-05
2.64935e-06
-1.84476e-05
3.03809e-06
-1.84366e-05
3.30815e-06
-1.64128e-05
4.40553e-06
-1.752e-05
5.65274e-06
-1.51431e-05
7.65674e-06
-1.53276e-05
8.48565e-06
-1.33574e-05
8.38367e-06
-1.3838e-05
1.12647e-05
-1.01922e-05
1.37254e-05
-1.2127e-05
1.58025e-05
-9.0726e-06
1.72079e-05
-2.9614e-05
2.01945e-05
-4.33144e-05
1.42104e-05
-1.92074e-05
1.5359e-05
-5.97467e-05
1.21984e-05
-6.43224e-05
9.71146e-06
-6.25983e-05
8.70353e-06
-3.33515e-05
1.36307e-05
-3.46577e-05
1.76033e-05
-3.05729e-05
-1.74104e-05
2.0587e-05
6.91126e-07
-1.19499e-05
9.29501e-07
-1.89475e-05
1.37431e-06
-1.88924e-05
1.88762e-06
-1.89499e-05
2.69973e-06
-1.72249e-05
3.45919e-06
-1.82795e-05
4.79349e-06
-1.64774e-05
6.18019e-06
-1.67143e-05
7.66767e-06
-1.48449e-05
9.30735e-06
-1.54776e-05
1.1261e-05
-1.21458e-05
1.34269e-05
-1.42929e-05
1.52351e-05
-1.08809e-05
1.79753e-05
-3.23542e-05
1.27854e-05
-3.81245e-05
1.51745e-05
-2.15965e-05
1.88446e-05
-6.34168e-05
2.13242e-05
-6.6802e-05
1.51962e-05
-5.64703e-05
1.68775e-05
-3.50328e-05
2.29504e-05
-4.07306e-05
2.60049e-05
-3.36274e-05
-1.85127e-05
2.71073e-05
1.20761e-06
-1.31575e-05
1.53424e-06
-1.92741e-05
2.55036e-06
-1.99085e-05
3.38382e-06
-1.97834e-05
6.00364e-06
-1.98447e-05
6.95983e-06
-1.92357e-05
8.63275e-06
-1.81503e-05
9.85405e-06
-1.79356e-05
1.13573e-05
-1.63481e-05
1.25315e-05
-1.66519e-05
1.45298e-05
-1.41441e-05
1.62466e-05
-1.60097e-05
1.74177e-05
-1.2052e-05
1.99336e-05
-3.48701e-05
1.70383e-05
-3.52292e-05
4.50414e-05
-4.95996e-05
2.09308e-05
-3.93063e-05
2.55239e-05
-7.13951e-05
2.14646e-05
-5.2411e-05
2.87216e-05
-4.22898e-05
2.66429e-05
-3.86518e-05
3.1597e-05
-3.85815e-05
-1.92031e-05
3.22873e-05
1.53901e-06
-1.46965e-05
2.73715e-06
-2.04722e-05
3.94773e-06
-2.11191e-05
5.12012e-06
-2.09557e-05
6.2641e-06
-2.09887e-05
7.31833e-06
-2.02899e-05
8.44743e-06
-1.92794e-05
9.90835e-06
-1.93965e-05
1.17209e-05
-1.81607e-05
1.34506e-05
-1.83816e-05
1.56919e-05
-1.63855e-05
1.78171e-05
-1.81348e-05
1.99622e-05
-1.41971e-05
2.35499e-05
-3.84578e-05
2.54929e-05
-3.71722e-05
3.26911e-05
-5.67978e-05
2.55415e-05
-3.21566e-05
2.82084e-05
-7.40619e-05
8.50584e-06
-3.27085e-05
4.05194e-05
-7.43034e-05
3.27366e-05
-3.0869e-05
3.26102e-05
-3.84551e-05
-2.01694e-05
3.35766e-05
2.11154e-06
-1.6808e-05
3.95445e-06
-2.23151e-05
5.51222e-06
-2.26769e-05
7.03884e-06
-2.24824e-05
8.26218e-06
-2.22121e-05
9.86807e-06
-2.18958e-05
1.16058e-05
-2.10171e-05
1.30419e-05
-2.08326e-05
1.46911e-05
-1.98099e-05
1.5611e-05
-1.93014e-05
1.73857e-05
-1.81603e-05
1.83748e-05
-1.91239e-05
1.99512e-05
-1.57735e-05
2.21722e-05
-4.06788e-05
2.76755e-05
-4.26755e-05
2.26818e-05
-5.18041e-05
5.08804e-05
-6.03553e-05
1.88942e-05
-4.20756e-05
2.6843e-05
-4.06572e-05
2.09983e-05
-6.84588e-05
5.05307e-05
-6.04013e-05
4.39359e-05
-3.18603e-05
-2.82283e-05
5.19948e-05
2.01336e-06
-1.88214e-05
3.50303e-06
-2.38047e-05
4.87906e-06
-2.40529e-05
6.30036e-06
-2.39036e-05
7.79555e-06
-2.37072e-05
9.30356e-06
-2.34038e-05
1.08828e-05
-2.25964e-05
1.2332e-05
-2.22817e-05
1.40057e-05
-2.14836e-05
1.47782e-05
-2.00739e-05
1.65959e-05
-1.9978e-05
1.64151e-05
-1.89431e-05
1.83028e-05
-1.76612e-05
1.56305e-05
-3.80065e-05
1.93591e-05
-4.64042e-05
1.9494e-05
-5.1939e-05
3.03256e-05
-7.11869e-05
3.18128e-05
-4.35629e-05
2.38344e-05
-3.26788e-05
2.90414e-05
-7.36657e-05
3.03506e-05
-6.17105e-05
3.62858e-05
-3.77955e-05
-3.18191e-05
3.98766e-05
2.27121e-06
-2.10926e-05
3.94012e-06
-2.54736e-05
5.37937e-06
-2.54921e-05
6.95828e-06
-2.54825e-05
8.45729e-06
-2.52062e-05
9.94091e-06
-2.48874e-05
1.13791e-05
-2.40346e-05
1.28814e-05
-2.37839e-05
1.45085e-05
-2.31108e-05
1.58361e-05
-2.14015e-05
1.75802e-05
-2.17221e-05
1.80323e-05
-1.93952e-05
2.10017e-05
-2.06306e-05
1.89811e-05
-3.59859e-05
2.15045e-05
-4.89275e-05
3.44651e-05
-6.48996e-05
3.5843e-05
-7.25649e-05
2.9143e-05
-3.68629e-05
3.00391e-05
-3.35749e-05
4.60963e-05
-8.97229e-05
4.74981e-05
-6.31123e-05
4.349e-05
-3.37874e-05
-3.6416e-05
4.8087e-05
1.988e-06
-2.30806e-05
3.44976e-06
-2.69354e-05
4.86508e-06
-2.69074e-05
6.37557e-06
-2.6993e-05
7.89814e-06
-2.67288e-05
9.70999e-06
-2.66992e-05
1.14681e-05
-2.57927e-05
1.32605e-05
-2.55763e-05
1.5005e-05
-2.48553e-05
1.74604e-05
-2.38569e-05
1.95828e-05
-2.38446e-05
2.24518e-05
-2.22641e-05
2.56592e-05
-2.3838e-05
3.06752e-05
-4.1002e-05
3.09569e-05
-4.92092e-05
3.09189e-05
-6.48616e-05
2.20511e-05
-6.3697e-05
5.51879e-05
-6.99996e-05
6.45453e-05
-4.29323e-05
2.90765e-05
-5.42541e-05
4.31674e-05
-7.72032e-05
3.65689e-05
-2.71888e-05
-7.40693e-05
7.42222e-05
1.93369e-06
-2.50143e-05
3.34912e-06
-2.83508e-05
4.75694e-06
-2.83152e-05
6.24818e-06
-2.84843e-05
7.67824e-06
-2.81589e-05
9.27826e-06
-2.82992e-05
1.06651e-05
-2.71795e-05
1.23372e-05
-2.72485e-05
1.31632e-05
-2.56813e-05
1.55461e-05
-2.62398e-05
1.58113e-05
-2.41098e-05
1.93614e-05
-2.58142e-05
1.51753e-05
-1.96519e-05
1.73734e-05
-4.32001e-05
2.08913e-05
-5.27271e-05
2.20396e-05
-6.60099e-05
3.62403e-05
-7.78977e-05
4.02794e-05
-7.40388e-05
4.67927e-05
-4.94456e-05
3.5655e-05
-4.31164e-05
4.70694e-05
-8.86176e-05
5.59259e-05
-3.60453e-05
-7.65161e-05
5.83727e-05
1.67424e-06
-2.66885e-05
2.79959e-06
-2.94762e-05
4.07707e-06
-2.95927e-05
5.34838e-06
-2.97556e-05
6.79706e-06
-2.96075e-05
8.38213e-06
-2.98843e-05
1.02808e-05
-2.90782e-05
1.22887e-05
-2.92564e-05
1.39266e-05
-2.73192e-05
1.60076e-05
-2.83207e-05
1.72721e-05
-2.53743e-05
2.06291e-05
-2.91713e-05
1.69336e-05
-1.59564e-05
1.8551e-05
-4.48175e-05
2.78555e-05
-6.20317e-05
2.97976e-05
-6.7952e-05
2.8276e-05
-7.63761e-05
2.03978e-05
-6.61606e-05
5.19923e-05
-8.10401e-05
3.64369e-05
-2.75609e-05
3.32942e-05
-8.54749e-05
3.79834e-05
-4.07345e-05
-9.36847e-05
5.51521e-05
1.68467e-06
-2.83732e-05
2.9114e-06
-3.07029e-05
4.24015e-06
-3.09215e-05
5.46011e-06
-3.09755e-05
6.81502e-06
-3.09624e-05
8.20143e-06
-3.12707e-05
1.01546e-05
-3.10313e-05
1.19549e-05
-3.10568e-05
1.46745e-05
-3.00387e-05
1.6681e-05
-3.03273e-05
1.95248e-05
-2.82181e-05
1.8467e-05
-2.81135e-05
1.94695e-05
-1.69589e-05
2.93641e-05
-5.47121e-05
2.89377e-05
-6.16053e-05
3.13627e-05
-7.0377e-05
2.09454e-05
-6.59588e-05
2.67346e-05
-7.19499e-05
3.27215e-05
-8.70269e-05
5.22095e-05
-4.70489e-05
2.21293e-05
-5.53948e-05
6.39305e-05
-8.25356e-05
-6.32663e-05
3.35121e-05
1.4417e-06
-2.98149e-05
2.56702e-06
-3.18282e-05
3.74306e-06
-3.20975e-05
4.80192e-06
-3.20344e-05
6.1415e-06
-3.2302e-05
7.1981e-06
-3.23273e-05
8.65693e-06
-3.24901e-05
1.0136e-05
-3.25358e-05
1.22528e-05
-3.21556e-05
1.32895e-05
-3.13639e-05
1.50973e-05
-3.00258e-05