/*--------------------------------*- C++ -*----------------------------------*\
| =========                 |                                                 |
| \\      /  F ield         | foam-extend: Open Source CFD                    |
|  \\    /   O peration     | Version:     4.1                                |
|   \\  /    A nd           | Web:         http://www.foam-extend.org         |
|    \\/     M anipulation  |                                                 |
\*---------------------------------------------------------------------------*/
FoamFile
{
    version     2.0;
    format      ascii;
    class       volScalarField;
    location    "0.4";
    object      psi;
}
// * * * * * * * * * * * * * * * * * * * * * * * * * * * * * * * * * * * * * //

dimensions      [1 -1 -2 0 0 0 0];

internalField   nonuniform List<scalar> 
2268
(
0.000910977
0.00129089
0.00171455
0.00171664
0.00194677
0.00172628
0.00253388
0.0069361
0.0138311
0.0160222
0.0117384
0.0100523
0.00810072
0.00736937
0.00699997
0.00728029
0.00760071
0.00725441
0.00590531
0.00391878
0.00333809
0.00140834
-0.0131443
0.00597623
0.00666291
0.00731045
0.00783631
0.00849895
0.00889348
0.0115687
0.0188077
0.0275679
0.0203984
0.0155132
0.0134375
0.0126977
0.0118895
0.0106504
0.0100633
0.0099606
0.00960424
0.00812385
0.00609471
0.00490552
0.00207941
-0.0132129
0.0172325
0.0181485
0.0184098
0.0208183
0.0216444
0.0241045
0.0306265
0.0411331
0.0445989
0.0109421
0.0130816
0.0151107
0.0187295
0.0184136
0.0159251
0.0131777
0.0125823
0.0121383
0.0121513
0.0121175
0.00914807
0.00453604
-0.0133896
0.0337574
0.0341682
0.0321214
0.0391926
0.0381904
0.0458944
0.0562772
0.0709561
0.0416668
-0.00844257
0.00479322
0.01575
0.0256988
0.0256834
0.0214555
0.0145052
0.0127632
0.0136074
0.0167951
0.0198699
0.0162162
0.00850335
-0.0130679
0.0502255
0.0473691
0.0395991
0.0553834
0.0486772
0.06644
0.0812138
0.0863856
-0.018317
-0.0490519
-0.0186448
0.00600708
0.0245558
0.0258857
0.0214364
0.00935777
0.00485935
0.00965686
0.0191403
0.0278883
0.0275287
0.0148644
-0.0112753
0.0529045
0.0408892
0.0233913
0.0549506
0.0345146
0.0678511
0.0863794
0.030584
-0.120331
-0.121765
-0.0774232
-0.0331784
-0.00192659
0.00342035
0.00427378
-0.00925161
-0.0188371
-0.00859013
0.00997287
0.0334993
0.0390516
0.0253003
-0.00617602
0.0153615
-0.0139578
-0.042791
0.0120714
-0.0338016
0.0249335
0.0332714
-0.166009
-0.278324
-0.25619
-0.185654
-0.131978
-0.0817841
-0.0694167
-0.0523759
-0.0526764
-0.0633541
-0.0512717
-0.0204697
0.0227107
0.0419555
0.0403756
-0.000788945
-0.130093
-0.183705
-0.219096
-0.14469
-0.22548
-0.157329
-0.213246
-0.462436
-0.544948
-0.512804
-0.428672
-0.385356
-0.294461
-0.262508
-0.200601
-0.148956
-0.139555
-0.136156
-0.0975081
-0.0271699
0.0169946
0.0539999
1.05169e-05
0.370673
0.580065
0.807952
1.01263
1.15321
1.21359
1.34603
1.49747
1.72934
2.12264
2.61679
3.04902
3.3204
3.62249
3.78662
3.75131
3.24401
2.82563
2.14285
0.338594
0.433633
0.190059
0.083215
0.18394
0.427692
0.480139
0.501342
0.402881
0.289221
0.279673
0.570635
0.472409
0.842625
1.40651
3.65554
3.76584
3.40088
3.1771
0.295873
0.312741
-0.0205273
-0.0630156
0.0996264
0.235747
0.198931
0.402783
0.354516
0.156435
-0.212841
-0.211257
0.127766
-0.0298681
0.0631864
2.17938
3.23705
3.3994
3.44567
0.339922
0.352152
0.136079
-0.0469551
-0.0221741
-0.0260221
-0.0979532
0.137502
0.617506
0.651718
0.338441
-0.225701
0.401495
0.49925
-0.51629
0.226294
1.32628
2.72033
3.56258
0.424823
0.275979
0.144752
-0.0131181
-0.118698
-0.101094
-0.0961225
-0.0216883
0.384532
1.0445
1.24691
0.658872
1.55016
2.972
1.59106
-0.902671
-0.184386
1.20908
3.81286
-0.699381
-0.550617
-0.562595
-0.30188
-0.148641
-0.0663009
-0.00859591
-0.00813498
0.00677585
0.554598
1.48827
2.05337
2.75288
3.90638
3.41881
-0.31794
-0.528399
0.300454
4.13489
-4.55889
-1.22345
-0.745441
0.110804
0.341502
-0.0239506
0.0137855
0.0131548
-0.135018
0.00600857
0.812134
2.12199
3.31954
3.62147
3.665
1.32149
-0.686738
-0.761531
4.34422
-4.4668
-0.123382
0.60736
1.41658
0.726338
0.222104
0.162389
0.0943988
-0.0608061
-0.215865
0.160741
1.4635
3.06136
3.42086
3.42396
2.70998
-0.283216
-0.866676
4.45132
-0.663144
-0.758583
-0.777941
-0.755465
-0.8304
-1.02296
-0.995448
-1.18522
-1.2463
-1.23476
-1.18438
-1.17548
-0.94272
-0.8392
-0.6442
-0.430654
-0.308792
-0.343188
-0.324227
-0.245453
-0.119619
-0.00477362
-0.0460024
-0.687485
-0.821396
-0.64922
-1.1286
-0.638913
-1.03147
-0.611691
-0.69265
-0.626167
-0.536559
-0.720778
-0.836135
-0.655582
-0.664134
-0.614735
-0.395061
-0.173425
-0.494086
-0.63701
-0.494405
-0.291377
-0.16343
-0.0410864
0.449874
0.407783
0.71012
0.336324
0.949313
0.706433
0.999527
0.834046
0.824496
0.719505
0.574617
0.520345
0.577549
0.363087
-0.171279
-0.659826
-0.20917
-0.501016
-0.864488
-0.736122
-0.684316
-0.543785
-0.0967932
0.666869
0.669213
0.78379
0.692512
0.850084
0.613865
0.614237
0.416843
0.384397
0.29982
0.386635
0.54094
0.681531
0.597076
0.344637
0.00739398
0.178106
0.00196449
-0.749227
-0.914978
-1.30309
-1.63933
-0.846715
0.425246
0.425533
0.4641
0.440725
0.459011
0.357952
0.32688
0.231688
0.209757
0.162937
0.232962
0.281367
0.303437
0.304673
0.245895
-0.0237308
-0.0136306
0.428314
0.321715
-0.354155
-1.20879
-1.24335
-0.921496
0.193313
0.189105
0.19477
0.184016
0.183317
0.146083
0.128672
0.092353
0.0827846
0.0655555
0.101299
0.109752
0.086105
0.085248
0.0413492
-0.0951127
-0.0871453
0.739689
1.8817
1.64406
2.7705
1.18578
-0.260819
0.0637722
0.0612187
0.058117
0.0527438
0.0522623
0.0378688
0.0328932
0.0239558
0.0189271
0.014209
0.0218495
0.0147281
0.0088355
0.00862085
0.00167749
-0.0327269
0.0590467
0.625093
1.47383
0.916889
2.74779
1.43106
0.911535
0.0122217
0.0110941
0.00793389
0.00651254
0.00464727
0.00163804
0.000880894
0.00122071
-0.00226205
-0.00524403
-0.00811056
-0.010284
-0.00533497
-0.00124103
-0.00240286
-0.00758479
0.0032418
0.183142
0.679616
0.171792
0.195263
0.257708
0.228552
-0.00232871
-0.00292168
-0.00441905
-0.00446764
-0.00531267
-0.00468691
-0.00451942
-0.00513113
-0.00847827
-0.0104961
-0.0115816
-0.0109368
-0.00898926
-0.00796158
-0.00954189
-0.00564985
0.0144922
0.128503
0.339544
0.116251
-0.168478
-0.0992283
-0.0774915
-0.00453947
-0.00470078
-0.00487457
-0.00502242
-0.00445886
-0.00361012
-0.00356009
-0.00552682
-0.00864928
-0.0101771
-0.0102674
-0.00990816
-0.0100081
-0.0101783
-0.00836556
-0.00237441
0.00856614
0.04785
0.104206
0.0498869
-0.0663488
-0.068136
-0.0678849
-0.00458042
-0.00461756
-0.00389991
-0.0042686
-0.0029462
-0.00158983
-0.00184178
-0.00472147
-0.007603
-0.00875059
-0.00866182
-0.00886266
-0.0101316
-0.0092745
-0.00817587
-0.00421717
-0.00308976
-0.00273799
-0.00558659
-0.0310545
-0.0295816
-0.0247524
-0.026287
-0.00239971
-0.00202351
-0.000844751
-0.00136424
-0.000608823
8.74494e-05
-0.000249697
-0.00281891
-0.00514652
-0.00545313
-0.00571739
-0.0055909
-0.00706207
-0.00487247
-0.00522275
-0.00537686
-0.00626145
-0.00794583
-0.012066
-0.0136075
-0.00931891
-0.0047918
-0.00551652
-0.000724685
-0.000419576
2.28018e-05
-0.000297109
-2.35664e-05
0.000226826
2.80931e-05
-0.00131817
-0.00217566
-0.00226555
-0.00285368
-0.00289793
-0.00420957
-0.0019899
-0.00152881
-0.00112051
-0.00246191
-0.00272404
-0.00216512
-0.00253673
-0.000995293
-0.000186814
0.000232529
-2.20042e-05
1.20946e-05
7.20815e-05
-1.02217e-05
6.58363e-05
0.000135133
0.000101061
-0.000193427
-0.000416243
-0.000467008
-0.000867428
-0.00121966
-0.00206196
-0.000962888
-0.000387495
4.07226e-05
-0.000303286
-0.000305817
8.11331e-05
0.00014904
0.000263423
0.000121145
0.000316172
5.49229e-05
4.08759e-05
3.95369e-05
2.57196e-05
4.52351e-05
7.88198e-05
0.000108398
9.38427e-05
6.32248e-05
3.24524e-05
-0.000110825
-0.000340775
-0.000533593
-0.00030438
-0.000125616
7.25392e-05
5.1393e-05
3.15965e-05
0.000110403
0.000137546
0.000112358
4.52873e-05
4.06763e-05
2.97769e-05
2.00746e-05
1.90105e-05
2.12831e-05
1.91741e-05
2.70404e-05
5.69063e-05
8.53974e-05
7.97468e-05
6.46875e-05
3.73869e-05
-2.41226e-05
-3.882e-05
-2.82645e-05
1.338e-05
3.12725e-05
3.15535e-05
2.17195e-05
2.60443e-05
2.54947e-05
2.46742e-05
1.51816e-05
3.77807e-06
2.68699e-06
1.79597e-07
1.80883e-06
3.98933e-06
2.98632e-06
3.8606e-06
1.56674e-05
3.19785e-05
3.57099e-05
3.54053e-05
3.20161e-05
2.33557e-05
2.23729e-05
1.23818e-05
1.43172e-05
1.08372e-05
8.8558e-06
5.13669e-06
1.67004e-06
-1.74214e-07
1.49594e-07
2.137e-06
1.87071e-06
-1.02725e-06
-1.26192e-06
-8.25303e-07
-2.03221e-07
-5.34995e-07
-9.48207e-07
1.17361e-06
6.66653e-06
6.05376e-06
6.38e-06
9.37993e-06
1.29831e-05
1.19808e-05
8.06113e-06
4.46811e-06
1.50058e-06
4.8119e-07
5.10815e-08
-4.10866e-07
-6.48811e-07
-6.9514e-07
-2.65458e-07
1.84723e-07
-6.0625e-07
-4.43852e-07
-3.70188e-07
-3.55724e-07
-5.19761e-07
-8.2198e-07
-7.92352e-07
1.30446e-07
-5.32803e-07
-7.88535e-07
8.38461e-07
3.01018e-06
3.06289e-06
1.70423e-06
-3.43182e-08
-2.76739e-07
-2.39041e-07
-1.82505e-07
-1.27523e-07
-1.12833e-07
-1.37252e-07
-1.45009e-07
-9.51531e-08
-1.55166e-07
-1.66357e-08
-5.73647e-08
-1.79876e-07
-2.80528e-07
-4.33478e-07
-5.7707e-07
-5.84908e-07
-6.3861e-07
-6.59708e-07
-3.55504e-07
2.70697e-07
2.97794e-07
-4.82104e-08
-2.39943e-07
-1.43097e-07
-8.27492e-08
-4.58076e-08
-2.27597e-08
-5.76051e-09
-9.49367e-09
-2.863e-08
-2.42195e-08
-2.8928e-08
2.12822e-08
7.30886e-09
-2.47676e-08
-4.46386e-08
-1.34126e-07
-2.33575e-07
-3.13119e-07
-2.66796e-07
-1.95171e-07
-2.46177e-07
-1.46702e-07
-9.2051e-08
-1.11486e-07
-7.87934e-08
-3.54862e-08
-1.04608e-08
-1.19229e-09
1.44935e-09
1.20222e-09
-1.19086e-09
-6.03121e-09
1.33526e-08
-6.86531e-09
7.74707e-09
7.9512e-09
6.68645e-09
8.60583e-09
-1.61542e-08
-4.85415e-08
-1.01074e-07
-6.79327e-08
-6.04231e-09
-6.25247e-08
-8.84128e-08
-6.04029e-08
-3.80854e-08
-7.24415e-09
1.39928e-09
2.2709e-09
1.62813e-09
6.60566e-10
-5.86652e-10
-3.75952e-09
-5.94965e-09
2.06555e-08
-1.49579e-10
2.04248e-09
3.4509e-09
4.36393e-09
6.36234e-09
4.76453e-09
-3.54035e-10
-1.16519e-08
-4.85228e-09
1.26096e-08
-6.4172e-09
-2.82031e-08
-1.1182e-08
-2.14794e-09
2.89219e-09
2.11506e-09
1.05012e-09
5.21288e-10
-1.34784e-10
-2.16416e-09
-5.66483e-09
-3.05286e-09
4.75141e-08
6.6374e-10
4.59153e-10
5.70218e-10
1.16853e-09
2.72202e-09
3.68824e-09
4.21381e-09
2.72905e-09
3.062e-09
5.24113e-09
2.92885e-09
-3.05384e-09
1.08735e-09
1.76275e-09
1.21533e-09
6.40834e-10
1.8909e-10
8.18144e-11
-5.67937e-10
-3.2681e-09
-7.89212e-09
-2.61712e-10
8.34412e-08
1.6424e-10
-1.39774e-11
-7.20321e-11
1.60175e-11
3.54889e-10
8.44439e-10
1.548e-09
1.5301e-09
1.36456e-09
1.34887e-09
1.60127e-09
1.15588e-09
1.22686e-09
6.72893e-10
1.45181e-10
2.73308e-11
6.90695e-11
9.77806e-11
-6.472e-10
-3.55752e-09
-9.79647e-09
-1.50407e-08
4.20313e-08
-6.39662e-12
-4.38057e-11
-6.95161e-11
-8.88181e-11
-8.90634e-11
-3.49554e-11
1.3567e-10
2.08707e-10
1.55474e-10
7.19836e-11
2.34101e-10
3.31574e-10
2.55892e-10
5.01509e-11
-4.45056e-11
-8.46232e-12
9.39418e-11
1.3493e-10
-6.60701e-10
-3.59359e-09
-9.957e-09
-2.11057e-08
2.26409e-08
-1.37651e-11
-1.75649e-11
-2.25422e-11
-3.53547e-11
-5.08105e-11
-5.84679e-11
-4.68293e-11
-3.22033e-11
-3.89226e-11
-5.93129e-11
-3.43208e-11
-5.18745e-12
-6.41902e-12
-2.57981e-11
-2.13277e-11
1.03793e-11
1.32667e-10
1.88157e-10
-5.94374e-10
-3.41913e-09
-9.48586e-09
-2.35327e-08
-2.50835e-08
-2.22601e-12
-9.40931e-13
-3.57125e-13
-2.16432e-12
-6.2477e-12
-1.3054e-11
-1.83046e-11
-1.83778e-11
-1.8915e-11
-2.20109e-11
-2.11437e-11
-1.67755e-11
-1.37683e-11
-1.13679e-11
-6.79525e-12
2.74343e-11
1.60817e-10
1.54808e-10
-9.97273e-10
-3.64633e-09
-6.57333e-09
-1.94822e-08
-4.61289e-08
6.41845e-13
9.96056e-13
1.37667e-12
1.54103e-12
1.4695e-12
6.24705e-13
-1.00612e-12
-1.53855e-12
-1.64317e-12
-1.69685e-12
-2.43223e-12
-2.5148e-12
-3.24436e-12
-5.36038e-12
-2.36842e-12
7.39828e-11
2.37952e-10
1.09137e-10
-2.06723e-09
-4.12019e-09
-3.6048e-09
-6.2084e-09
-3.82541e-08
5.30405e-13
6.0966e-13
6.20014e-13
6.11361e-13
6.64616e-13
7.66332e-13
6.31434e-13
6.80164e-13
6.70725e-13
7.39894e-13
7.66445e-13
3.1117e-13
-1.68981e-12
-7.13623e-12
5.52256e-12
1.56997e-10
3.69121e-10
1.06367e-10
-4.85818e-09
-6.62405e-09
9.91488e-09
2.43499e-08
2.22725e-08
-4.12882e-14
5.57121e-14
7.61356e-14
1.13715e-14
5.47606e-14
7.90588e-14
1.31121e-13
3.50451e-13
2.05068e-13
3.4626e-13
3.92791e-13
1.78679e-13
-3.57066e-12
-1.03977e-11
3.26394e-11
3.03604e-10
5.27017e-10
-5.83926e-10
-9.55116e-09
-1.51418e-08
3.3051e-08
1.27291e-07
2.64809e-07
3.83039e-14
2.13486e-13
2.2339e-13
2.26793e-13
-7.38795e-14
3.36914e-14
2.12921e-13
-2.70338e-14
4.27439e-14
2.77709e-13
1.58386e-13
-1.84508e-13
-5.84681e-12
-1.52202e-11
6.20321e-11
5.08468e-10
8.14293e-10
-1.96469e-09
-1.94807e-08
-3.14573e-08
4.40912e-08
2.61372e-07
4.41757e-07
-3.22928e-14
2.4077e-13
4.41302e-15
9.70097e-14
1.20992e-13
4.94373e-14
2.16975e-13
6.31467e-14
2.55794e-13
2.48779e-13
1.81903e-13
-4.72012e-13
-8.28145e-12
-1.99352e-11
9.81358e-11
7.73169e-10
9.39686e-10
-5.12724e-09
-3.38127e-08
-5.61581e-08
1.49755e-07
6.70112e-07
6.93937e-07
1.76167e-13
8.1647e-14
9.16753e-14
-5.00604e-15
7.64424e-14
1.91409e-13
9.38787e-14
2.26412e-13
1.95259e-13
2.81741e-13
4.01064e-13
-9.50609e-13
-1.12714e-11
-1.86699e-11
1.75185e-10
1.0794e-09
1.35022e-09
-9.62389e-09
-5.75081e-08
-8.46029e-08
2.36301e-07
1.15821e-06
7.17816e-07
4.65798e-14
1.57738e-13
1.23678e-13
1.73035e-13
2.31786e-14
5.71328e-14
1.14019e-13
1.80339e-13
2.01987e-13
3.25379e-13
3.95277e-13
-1.2458e-12
-1.36172e-11
-2.28355e-11
2.11015e-10
1.32354e-09
1.60633e-09
-1.48076e-08
-7.51631e-08
-1.06101e-07
4.34288e-07
1.71372e-06
3.39977e-07
-2.56552e-15
1.84552e-13
1.6033e-13
1.41481e-13
7.36804e-14
1.51445e-13
1.11377e-13
3.35408e-13
2.25917e-13
2.54711e-13
3.76373e-13
-1.54156e-12
-1.58665e-11
-2.55094e-11
2.589e-10
1.49925e-09
1.37604e-09
-1.91495e-08
-8.56261e-08
-1.06871e-07
6.32733e-07
2.58228e-06
9.08821e-07
1.26266e-13
1.28586e-13
2.51384e-13
5.14748e-14
1.30668e-13
-1.06906e-14
6.99276e-14
2.8986e-13
1.81762e-13
2.75657e-13
4.3662e-13
-2.23415e-12
-1.84559e-11
-1.83796e-11
3.84194e-10
1.67104e-09
3.16038e-10
-2.73541e-08
-9.82057e-08
-5.6623e-08
1.0994e-06
3.39137e-06
1.6021e-06
1.20726e-13
1.20562e-13
1.95683e-13
1.65164e-13
6.76645e-14
8.67927e-14
1.86833e-13
3.1819e-13
1.97278e-13
1.7425e-13
5.47826e-13
-2.64543e-12
-2.1359e-11
-1.71047e-11
5.05991e-10
1.89965e-09
2.63825e-10
-3.48091e-08
-1.10939e-07
-1.06081e-08
1.64101e-06
3.95829e-06
1.46042e-06
4.14927e-14
5.74428e-14
1.42664e-13
7.42441e-14
1.2481e-13
1.82765e-13
-2.72499e-14
2.90457e-13
1.58871e-13
2.08447e-13
5.80659e-13
-3.43334e-12
-2.25086e-11
-5.32781e-13
5.87951e-10
2.02217e-09
-2.07964e-09
-4.77193e-08
-1.21608e-07
8.55718e-08
2.17365e-06
4.3479e-06
8.79536e-07
3.67009e-14
5.71205e-14
8.67502e-14
2.02214e-14
1.12762e-13
1.85537e-13
1.9743e-13
3.19987e-13
2.5325e-13
2.08336e-13
5.12571e-13
-3.31672e-12
-2.31818e-11
6.13337e-12
6.6534e-10
2.10117e-09
-4.38283e-09
-5.64927e-08
-1.22706e-07
2.13527e-07
2.87767e-06
6.008e-06
-1.10491e-05
1.49596e-13
1.14439e-13
3.92351e-14
1.45342e-13
5.37351e-14
1.03791e-13
1.28307e-13
2.69387e-13
3.56787e-13
3.28547e-13
5.86569e-13
-3.64677e-12
-2.33358e-11
1.66353e-11
6.86616e-10
2.09161e-09
-6.7545e-09
-6.26989e-08
-1.02619e-07
3.21735e-07
3.35662e-06
7.55093e-06
-1.24458e-05
1.29255e-13
8.57168e-14
-4.86206e-14
2.23156e-13
-2.19752e-14
2.71824e-13
1.84419e-13
2.725e-13
3.521e-13
9.91365e-14
5.37536e-13
-3.26707e-12
-2.29179e-11
-3.28769e-12
6.52314e-10
2.13121e-09
-8.00981e-09
-6.649e-08
-6.70352e-08
4.19449e-07
3.48202e-06
8.05767e-06
-1.19898e-05
0.100987
0.950054
2.16643
3.03059
0.049979
0.405135
0.962603
1.6149
0.106512
0.195106
0.365649
0.64708
-0.406881
-0.444576
-0.203412
0.103075
-0.674158
-0.514532
-0.274138
-0.957004
-0.0736023
-0.00375489
-0.137487
-2.00349
0.502546
0.561456
0.41253
-0.847366
0.45084
0.572251
0.458964
0.0519638
0.213725
0.123598
-0.0625346
0.0101033
0.0798007
-0.0215426
-0.0837452
-0.0402169
-0.00781461
-0.0397785
-0.0443817
-0.0275091
-0.0108478
-0.0176405
-0.0196215
-0.0182674
-0.00217896
-0.00287994
-0.00411713
-0.00424679
0.000670363
0.000679499
0.000568801
0.000523481
0.000136562
0.000178799
0.000216503
0.000252971
2.96864e-06
4.94026e-06
9.86769e-06
1.83273e-05
1.90305e-07
-1.10614e-06
-2.29928e-06
-2.48927e-06
3.18988e-07
2.7851e-07
9.96139e-08
-2.17793e-07
1.50881e-08
1.05891e-07
1.7611e-07
1.65265e-07
3.68101e-08
9.80394e-08
1.42816e-07
1.08145e-07
8.8015e-08
1.48356e-07
1.73399e-07
6.59466e-08
1.0741e-07
1.81234e-07
2.10111e-07
1.36569e-07
1.5974e-07
2.38612e-07
2.64605e-07
2.10742e-07
2.45492e-07
3.61091e-07
4.19117e-07
3.85597e-07
2.42863e-07
4.88641e-07
7.2797e-07
8.43931e-07
2.67633e-07
6.42018e-07
1.02101e-06
1.09801e-06
1.54628e-07
5.77016e-07
1.16017e-06
1.45851e-06
3.27157e-08
3.98834e-07
1.03538e-06
1.56034e-06
9.04353e-09
3.8002e-07
1.08409e-06
1.65877e-06
7.2771e-08
5.46081e-07
1.54941e-06
2.39642e-06
6.80119e-07
1.57281e-06
2.76115e-06
3.54055e-06
9.81522e-07
2.30143e-06
3.91699e-06
6.10871e-06
1.6266e-06
3.40509e-06
5.92957e-06
4.81485e-06
1.9839e-06
4.02662e-06
5.89014e-06
1.05203e-06
-3.3814e-07
-1.35647e-06
-2.63276e-06
-1.0153e-05
-9.91574e-06
-1.86681e-05
-3.53664e-05
-6.7907e-05
-2.05259e-05
-4.67954e-05
-7.24089e-05
-0.00011498
-2.76969e-05
-7.55106e-05
-0.000124758
-0.000165363
-2.75581e-05
-8.48549e-05
-0.000180907
-0.000237341
-7.3133e-05
-0.000136128
-0.000217605
-0.000290568
-8.67229e-05
-0.000179541
-0.000266095
-0.000328815
-8.21858e-05
-0.000191953
-0.000284701
-0.000337318
2.03069
-3.81048
2.11064
-0.452641
-0.542451
-0.231321
-0.028007
0.0686619
0.00543796
-0.0990244
-0.12085
0.830252
3.13887
3.07908
3.11758
3.04089
0.985177
-1.33826
4.49726
2.65694
-2.11237
1.71192
-3.46275
-3.11466
-1.51419
-0.868273
-0.281833
-0.0436964
-0.0784821
-0.249442
-0.482184
2.59106
2.47512
1.67371
1.43413
-0.161618
-1.49699
4.48704
1.08309
1.79684
2.47003
-0.536516
0.785707
0.979831
-0.3221
-1.56631
-0.480585
-0.280501
-0.373961
0.0926218
4.15726
1.07939
-0.106438
-0.0576914
-1.18858
-1.54775
3.03384
0.0319357
0.0872094
0.713985
1.40213
0.255732
0.831723
1.25714
-3.73507
-2.77501
-0.980418
-0.822467
1.19295
4.11553
-1.20408
-1.20573
0.54534
1.07177
3.69555
2.88782
-0.824594
-0.30169
0.0402871
0.275455
0.17337
1.44141
2.5652
1.27387
-0.0114283
-1.78483
-0.871497
1.05035
3.14605
1.37945
-3.32523
-1.55668
1.5568
1.9863
1.3505
1.24506
-2.26581
0.146049
-0.397896
-0.170521
-0.00512292
0.189169
2.01261
2.91003
0.838911
1.27681
0.64271
0.949307
1.42387
1.50154
2.12489
1.81101
-0.530267
0.239201
2.6211
1.14057
0.806014
-0.250504
-0.453217
0.11202
0.157258
-0.395887
0.322664
0.646818
1.9041
1.29065
-0.0378522
-0.334047
-0.347669
0.0635185
-1.54953
-0.305345
-0.0653977
0.36059
1.00147
0.312369
-0.217555
-0.0789803
0.44551
1.25425
0.0921011
3.04666
1.31121
1.72577
1.34277
0.165133
-0.957535
-1.5322
-2.36825
-1.391
-0.395176
-0.350686
0.104143
-0.190862
-0.214242
-0.356068
-0.204688
0.232773
0.659631
0.81392
1.73003
1.69927
-0.125913
0.960532
0.468607
1.26184
0.059903
-1.67223
-1.16789
-1.60476
-0.386287
-0.0325298
-0.129832
-0.0974955
-0.115159
-0.0919708
-0.023798
0.114935
0.388882
0.681081
1.60952
0.563325
0.731844
0.307197
-0.568813
0.189037
-1.11165
-1.24686
-0.642759
-0.093631
-0.0221528
-0.0410235
-0.0245294
-0.029269
-0.0526079
-0.0438335
0.0801856
0.545476
1.1149
1.34321
0.812358
2.00083
3.17027
1.11538
-0.0311947
-0.988049
-1.19107
-0.0914846
0.0557941
-0.0172012
-0.0135427
-0.00284462
0.0018891
0.0615592
0.268258
0.60052
0.86909
1.02175
1.08028
1.19506
2.01088
2.97541
2.33691
0.104482
-0.649533
-1.13587
0.127735
0.288097
-0.00614552
-0.000812124
0.000353741
-0.00409208
-0.0108401
0.0033554
0.109322
0.409394
0.636736
0.767359
1.12126
2.67606
3.53452
3.4474
0.951654
-0.541796
-0.815476
0.533011
0.522759
0.000295774
0.000582664
0.000612781
-0.000271888
-0.00496492
-0.0154966
-0.00659683
0.102089
0.148685
0.112661
0.144824
0.479551
0.830892
2.34424
1.94606
-0.0251031
-0.1596
1.10037
0.777331
0.000261784
0.000215117
0.000164086
0.000203048
-0.000605635
-0.00483615
-0.00848501
0.0232443
0.0454948
0.0475735
0.225033
0.49964
1.59829
2.19898
2.46779
1.18656
0.851134
1.77482
1.22839
3.24165e-05
2.64521e-05
1.33492e-05
7.41565e-05
0.000103423
-0.00070077
-0.00423387
-0.00256152
0.00500747
0.0252288
0.0733467
0.223933
0.469645
0.630834
2.42114
2.39138
1.54435
2.43719
1.57378
-8.27563e-07
-2.14951e-06
-7.95458e-06
2.78347e-06
4.64791e-05
3.27204e-05
-0.000848675
-0.00185702
-0.000284983
-0.000366828
0.0207289
0.119555
0.283253
0.685189
2.04588
3.22047
2.26421
2.78126
1.90642
-8.20437e-07
-1.35255e-06
-2.70531e-06
-2.71652e-06
2.53254e-06
6.61945e-07
-0.00019143
-0.000662441
-0.00043727
0.00840839
0.0517418
0.101902
0.279204
0.556389
1.23063
3.01083
3.03441
2.89379
2.20554
-2.55656e-08
-7.57206e-07
-2.13943e-06
-4.90663e-07
2.42654e-06
-5.09441e-06
-8.4884e-05
-0.000357147
-0.000495988
0.00139291
-9.98897e-05
0.101089
0.409281
0.843476
1.11522
2.20522
3.45131
2.9635
2.37592
-2.01101e-07
-1.35665e-06
-3.73748e-06
-2.84608e-06
3.19904e-06
4.73097e-06
-3.81143e-05
-0.000156551
-0.00022721
0.000122939
-0.0104081
0.0119485
0.318321
0.787945
1.16004
2.10555
3.7366
3.04954
2.43818
-4.85401e-07
-2.16997e-06
-3.77383e-06
-2.31576e-06
1.0733e-05
3.15231e-05
8.59617e-05
1.69799e-05
-0.000185507
-0.00244057
-0.00916767
0.0465108
0.212903
0.552345
0.804642
1.29459
3.93195
3.2432
2.387
-3.43196e-07
-1.92391e-06
-2.17425e-06
2.08005e-06
2.64263e-05
9.18352e-05
0.000310026
0.000334163
-2.23561e-05
-0.00299244
-0.00149969
0.130777
0.208591
0.314696
0.48986
0.724173
3.76394
3.44833
2.34707
-1.55975e-07
-1.03696e-06
-7.52481e-07
2.9919e-06
2.45885e-05
0.000104003
0.000374771
0.000996198
0.000192068
-0.0012863
0.00304192
0.0125938
0.0352436
0.181053
0.470992
0.693978
3.47164
3.60151
2.29844
3.38722e-08
-7.73585e-07
-5.79368e-07
1.76376e-06
1.23262e-05
8.21114e-05
0.00044382
0.00149484
0.000982703
-5.8254e-05
0.000299649
-0.00414827
0.00521357
0.145923
0.411618
0.6986
3.14979
3.75428
2.28804
5.45091e-07
-1.09604e-06
-8.52633e-06
-2.77916e-05
-1.84054e-05
6.39233e-05
0.000292385
0.00107024
0.00193451
0.000624813
-0.000394524
0.0132547
0.0817891
0.211597
0.411183
0.525547
1.99131
3.94123
2.30286
-2.8913e-07
-7.63557e-06
-3.23353e-05
-0.000105763
-0.000101902
-6.82518e-05
0.00015127
0.000846911
0.00189896
0.00274999
0.00571273
0.0231113
0.0695665
0.198086
0.486808
0.593819
1.09952
3.95769
2.32611
9.90589e-07
-3.08075e-06
-2.8687e-05
-0.000143493
-0.00015236
-4.45602e-05
0.000579811
0.00139228
0.00229959
0.00316547
0.00720128
0.0183959
0.114495
0.336536
0.580317
0.641067
0.769455
3.77694
2.39029
1.83155e-06
4.134e-07
-2.37962e-05
-0.000139784
-0.000199227
-0.000166211
5.18575e-05
0.000925152
0.00269456
0.0051813
0.0151694
0.047031
0.150171
0.348242
0.605778
0.661318
0.63565
3.4642
2.46499
1.81213e-06
-7.31749e-07
-2.04467e-05
-0.000117826
-0.000239536
-0.000233314
0.000213014
0.00118842
0.00283676
0.00652791
0.0180709
0.0773009
0.207404
0.404529
0.527455
0.594709
0.559362
3.04703
2.53181
3.09983e-06
-3.74362e-06
-2.6912e-05
-9.26264e-05
-0.000241816
-0.000283541
0.000195107
0.00329915
0.00534785
0.0108261
0.0251831
0.075058
0.184158
0.392649
0.537015
0.580367
0.558569
2.67689
2.56501
2.72171e-07
-2.28916e-05
-7.21221e-05
-0.000118301
-0.000161746
-0.000187876
0.000202565
0.0015181
0.00361482
0.00710651
0.0161155
0.0425684
0.166812
0.452427
0.543006
0.573284
0.543095
2.45451
2.56999
2.1466e-06
-2.41559e-05
-9.2324e-05
-0.000121111
-0.000118151
-0.000153896
-0.000212768
-7.56131e-05
0.00111347
0.00669225
0.0216321
0.0455637
0.126593
0.362565
0.509198
0.495829
0.326428
1.98541
2.57281
-1.50058e-05
-6.9717e-05
-0.000148025
-0.000137821
-9.04266e-05
-3.0038e-05
-5.0831e-05
0.000431894
0.00312289
0.00751275
0.015469
0.0472291
0.195201
0.490554
0.534221
0.469783
0.690027
1.82173
2.52465
-4.37978e-05
-0.000127432
-0.000166983
-0.000146409
6.0712e-05
0.000374721
0.000281708
0.000302693
0.00124448
0.00621479
0.0251927
0.104315
0.317577
0.558518
0.550553
0.449892
0.495091
1.23389
2.51314
-7.20859e-05
-0.000167121
-0.000178681
-0.000135953
4.94709e-05
0.000483727
0.000728441
0.000795385
0.00107312
0.00381286
0.0149156
0.0713437
0.252673
0.540164
0.550984
0.419031
0.385798
0.859069
2.45069
-0.000159801
-0.000191847
-0.0001974
-9.21898e-05
0.000376302
0.000890227
0.00192142
0.00179182
0.00185236
0.000714412
0.00299869
0.0428358
0.18712
0.493675
0.542657
0.430399
0.201675
0.62633
2.34498
-0.000206599
-0.000184965
-0.00015344
0.000134588
0.000503218
0.00132785
0.00279086
0.0030248
0.00312073
0.0035056
0.00637362
0.0274885
0.138964
0.444704
0.52307
0.392086
0.336093
1.40227
2.15181
-0.000229919
-0.000196032
-1.19001e-05
0.000503205
0.00111437
0.00207344
0.00359398
0.00433746
0.00500549
0.00772741
0.0125788
0.0251773
0.0835825
0.357318
0.492317
0.37848
0.291443
1.1322
2.04913
-0.000268649
-0.000166328
0.00030718
0.00130148
0.00229837
0.00514263
0.00593061
0.00712168
0.00870529
0.0119633
0.0158886
0.0185071
0.0345506
0.269288
0.459286
0.342243
0.284183
0.914359
1.92931
-0.000297089
-0.000161091
0.000559565
0.00283884
0.00455443
0.00718459
0.0077712
0.00782021
0.00861233
0.00977694
0.0128978
0.0248739
0.0483789
0.150437
0.392326
0.35493
0.263191
0.654577
1.80651
-0.000327121
-8.58638e-05
0.00130074
0.00328819
0.00548702
0.00747168
0.00762756
0.00623378
0.00600386
0.00467874
0.00377332
0.00137143
0.000819274
-0.000418672
0.19735
0.339224
0.286207
0.561099
1.7299
-0.000342642
-0.000139343
0.00183982
0.00375801
0.00635563
0.00825757
0.0074346
0.00551984
0.0047859
0.00468626
0.00463851
0.00441697
0.00236576
-0.00659865
0.102028
0.259822
0.26781
0.20748
1.09544
)
;

boundaryField
{
    leftWall
    {
        type            zeroGradient;
    }
    rightWall
    {
        type            zeroGradient;
    }
    lowerWall
    {
        type            zeroGradient;
    }
    atmosphere
    {
        type            zeroGradient;
    }
    defaultFaces
    {
        type            empty;
    }
}


// ************************************************************************* //
