/*--------------------------------*- C++ -*----------------------------------*\
| =========                 |                                                 |
| \\      /  F ield         | foam-extend: Open Source CFD                    |
|  \\    /   O peration     | Version:     4.1                                |
|   \\  /    A nd           | Web:         http://www.foam-extend.org         |
|    \\/     M anipulation  |                                                 |
\*---------------------------------------------------------------------------*/
FoamFile
{
    version     2.0;
    format      ascii;
    class       volVectorField;
    location    "0.4";
    object      U;
}
// * * * * * * * * * * * * * * * * * * * * * * * * * * * * * * * * * * * * * //

dimensions      [0 1 -1 0 0 0 0];

internalField   nonuniform List<vector> 
2268
(
(0.0477225 -0.00639589 0)
(0.0539588 -0.00523413 0)
(0.135576 -0.00700486 0)
(0.165855 -0.0057306 0)
(0.237243 -0.00293538 0)
(0.264262 -0.00708266 0)
(0.318461 -0.00259969 0)
(0.343612 -0.00189324 0)
(0.401858 -0.00254214 0)
(0.389348 0.0219653 0)
(0.317912 -0.0668871 0)
(0.317383 -0.0298688 0)
(0.351063 -0.0214746 0)
(0.348056 -0.0126206 0)
(0.356007 -0.0113429 0)
(0.328466 -0.0112606 0)
(0.344414 -0.0392566 0)
(0.348427 -0.0152601 0)
(0.292901 -0.0247205 0)
(0.269503 0.0457924 0)
(0.17812 0.0596182 0)
(0.160448 0.0181769 0)
(0.198962 0.00115411 0)
(0.0470277 -0.0176398 0)
(0.0549554 -0.0154703 0)
(0.135619 -0.0198336 0)
(0.166847 -0.0177345 0)
(0.232577 -0.0210715 0)
(0.268715 -0.0111673 0)
(0.331182 -0.0172966 0)
(0.355237 -0.0174631 0)
(0.418506 -0.0100684 0)
(0.375193 -0.00207082 0)
(0.323658 -0.0545101 0)
(0.340529 -0.0105777 0)
(0.368304 -9.17464e-05 0)
(0.362909 0.00854425 0)
(0.369535 0.0188769 0)
(0.329141 0.0324341 0)
(0.349996 0.0247474 0)
(0.402869 0.0440128 0)
(0.34702 0.0541228 0)
(0.284103 0.00244091 0)
(0.149081 0.0403162 0)
(0.164953 0.132778 0)
(0.233491 0.0820017 0)
(0.0434206 -0.0305028 0)
(0.0542864 -0.0260872 0)
(0.135108 -0.0337382 0)
(0.166857 -0.0279499 0)
(0.2277 -0.0279274 0)
(0.286759 -0.0297365 0)
(0.327304 -0.023035 0)
(0.359871 -0.0221875 0)
(0.429792 -0.00819926 0)
(0.345161 -0.112142 0)
(0.298341 -0.0659192 0)
(0.315574 -0.0275104 0)
(0.331687 -0.0184901 0)
(0.327538 -0.00910249 0)
(0.343929 0.00348754 0)
(0.315843 0.0168723 0)
(0.336127 0.0824682 0)
(0.350259 0.0347886 0)
(0.313239 0.0520342 0)
(0.262177 0.0169499 0)
(0.22634 0.0578564 0)
(0.167513 0.116116 0)
(0.193506 0.10307 0)
(0.0383184 -0.0407159 0)
(0.0547386 -0.0370984 0)
(0.139372 -0.0468851 0)
(0.168671 -0.0391575 0)
(0.231221 -0.0501935 0)
(0.29252 -0.0335614 0)
(0.32072 -0.0370126 0)
(0.392821 -0.0429978 0)
(0.353693 -0.0268459 0)
(0.284945 -0.104717 0)
(0.282816 -0.0496311 0)
(0.27043 -0.0263127 0)
(0.284034 -0.00618959 0)
(0.272766 0.00466227 0)
(0.287251 0.0235106 0)
(0.27617 0.0206168 0)
(0.290245 0.0802635 0)
(0.292254 0.0258678 0)
(0.281266 0.0329913 0)
(0.252842 0.0271492 0)
(0.196229 0.0876349 0)
(0.158874 0.128235 0)
(0.207232 0.162801 0)
(0.0319405 -0.0525205 0)
(0.0536602 -0.0498848 0)
(0.141129 -0.0607943 0)
(0.170693 -0.0489518 0)
(0.235105 -0.0584285 0)
(0.279174 -0.0506991 0)
(0.314359 -0.0460777 0)
(0.393675 -0.0265271 0)
(0.319639 -0.11403 0)
(0.252803 -0.0883384 0)
(0.258236 -0.0565777 0)
(0.249762 -0.0278937 0)
(0.259342 -0.0150479 0)
(0.250793 -0.00642787 0)
(0.2582 0.0219603 0)
(0.242673 0.0199446 0)
(0.241557 0.061303 0)
(0.228945 0.0410792 0)
(0.204544 0.0690095 0)
(0.21961 0.0785396 0)
(0.209623 0.0978194 0)
(0.161886 0.175012 0)
(0.204791 0.19026 0)
(0.0292434 -0.0608411 0)
(0.0578518 -0.0628443 0)
(0.144338 -0.0750606 0)
(0.17112 -0.0613803 0)
(0.226531 -0.076812 0)
(0.269996 -0.0501079 0)
(0.341765 -0.0721554 0)
(0.296734 -0.0495713 0)
(0.245404 -0.112337 0)
(0.250806 -0.0827982 0)
(0.244366 -0.0497262 0)
(0.245754 -0.0278096 0)
(0.249887 -0.00720689 0)
(0.238602 0.0061246 0)
(0.245054 0.0315981 0)
(0.236591 0.0302464 0)
(0.232946 0.0845053 0)
(0.228972 0.0445515 0)
(0.215729 0.124938 0)
(0.200025 0.0818019 0)
(0.203033 0.123627 0)
(0.16399 0.223309 0)
(0.199556 0.251148 0)
(0.0306178 -0.0732698 0)
(0.0615473 -0.077099 0)
(0.140066 -0.0874264 0)
(0.16071 -0.0676672 0)
(0.224649 -0.0826965 0)
(0.264543 -0.0821022 0)
(0.289265 -0.0427314 0)
(0.259863 -0.124758 0)
(0.231561 -0.104415 0)
(0.246893 -0.0860627 0)
(0.237529 -0.0565478 0)
(0.254733 -0.0298336 0)
(0.242377 -0.0110168 0)
(0.244347 0.000420815 0)
(0.239757 0.0257001 0)
(0.249785 0.0296162 0)
(0.229128 0.0609987 0)
(0.22807 0.0589141 0)
(0.197643 0.0927062 0)
(0.186523 0.136004 0)
(0.244835 0.128112 0)
(0.167154 0.254971 0)
(0.198265 0.273523 0)
(0.0358682 -0.082168 0)
(0.0677503 -0.0881138 0)
(0.138412 -0.0994078 0)
(0.158391 -0.0836849 0)
(0.217365 -0.105116 0)
(0.268149 -0.0566567 0)
(0.226255 -0.0900894 0)
(0.232777 -0.135829 0)
(0.228674 -0.11139 0)
(0.248959 -0.0874853 0)
(0.240838 -0.0555595 0)
(0.257704 -0.0309289 0)
(0.249615 -0.00401828 0)
(0.253763 0.00603454 0)
(0.254486 0.0301042 0)
(0.24982 0.0357764 0)
(0.242849 0.0330492 0)
(0.240996 0.0439094 0)
(0.242587 0.0465127 0)
(0.201612 0.156808 0)
(0.236992 0.127641 0)
(0.190409 0.258671 0)
(0.164457 0.361297 0)
(-3.91053 0.963597 0)
(-5.1712 0.394672 0)
(-5.28124 -0.274369 0)
(-4.95627 -0.467645 0)
(-4.72652 -0.413408 0)
(-4.50273 -0.519145 0)
(-4.34152 -0.425886 0)
(-4.13398 -0.504257 0)
(-3.99146 -0.429859 0)
(-3.81107 -0.498796 0)
(-3.55355 -0.446185 0)
(-3.32881 -0.438749 0)
(-3.17226 -0.424431 0)
(-2.7603 -0.474926 0)
(-2.5993 -0.487715 0)
(-2.53241 -0.118008 0)
(-1.73763 -0.0698118 0)
(-1.4559 -0.388986 0)
(-0.534912 -0.214148 0)
(-3.19347 1.23625 0)
(-3.31835 1.18292 0)
(-1.54693 0.442216 0)
(-1.3307 0.151874 0)
(-1.39145 -0.0167255 0)
(-1.32067 0.259613 0)
(-1.0889 0.174923 0)
(-1.02042 0.19106 0)
(-0.849704 0.111941 0)
(-0.811472 0.106432 0)
(-0.98033 0.0220844 0)
(-1.48863 -0.00419178 0)
(-1.8455 -0.158312 0)
(-1.9704 -0.205579 0)
(-2.03205 -0.548875 0)
(-2.41275 -0.0404888 0)
(-1.89123 0.372252 0)
(-1.0384 -0.42763 0)
(-0.276285 -0.723086 0)
(-2.22927 2.38813 0)
(-1.63359 1.61944 0)
(-0.357391 -0.627931 0)
(-1.71945 -0.49302 0)
(-1.84021 -0.324895 0)
(-1.83243 0.000422285 0)
(-1.45875 -0.481853 0)
(-1.37818 -0.470164 0)
(-1.20931 -0.426983 0)
(-1.07293 -0.165101 0)
(-1.06621 0.0544155 0)
(-1.33474 0.0209534 0)
(-1.38403 -0.464144 0)
(-1.30758 -0.515051 0)
(-1.37579 -0.936257 0)
(-1.95267 -0.485426 0)
(-1.70917 -0.123329 0)
(-0.974792 -0.250632 0)
(0.159229 -0.809042 0)
(-1.3855 2.02494 0)
(-0.418494 0.648989 0)
(2.09466 -0.317111 0)
(-1.00744 0.461165 0)
(-1.12627 0.376818 0)
(-0.402511 -0.000155136 0)
(-0.0260524 -0.222776 0)
(-0.698211 -0.161933 0)
(-0.928338 -0.202407 0)
(-0.935151 -0.193946 0)
(-0.725778 0.0953655 0)
(-0.646469 0.174259 0)
(-0.756742 -0.221209 0)
(-0.538639 -0.434498 0)
(-0.455045 -0.470963 0)
(-0.497704 0.0397984 0)
(-0.96743 -0.139573 0)
(-0.981471 -0.387582 0)
(0.289935 -1.13656 0)
(-0.486074 2.88366 0)
(1.15051 0.853671 0)
(3.6413 -0.0390491 0)
(3.92197 -0.039424 0)
(3.51337 0.267858 0)
(2.8318 -0.0760886 0)
(1.14529 -0.160273 0)
(-0.365053 0.106073 0)
(-0.481998 0.171057 0)
(-0.725644 -0.0420118 0)
(-0.637626 -0.102737 0)
(-0.573259 0.0351902 0)
(-0.42069 -0.428737 0)
(-0.122879 -0.622492 0)
(-0.0891728 -0.622482 0)
(0.386238 0.0359017 0)
(-0.205653 -0.120914 0)
(-0.802332 -0.314632 0)
(0.423736 -1.28423 0)
(0.761536 2.03196 0)
(4.12961 -0.127001 0)
(3.69079 0.223284 0)
(2.74786 0.01987 0)
(1.79314 -0.179693 0)
(1.64926 0.627129 0)
(0.613944 0.748996 0)
(-0.479911 0.340007 0)
(-0.128352 -0.0388963 0)
(-0.108937 0.117436 0)
(0.0195229 0.00181498 0)
(-0.434809 -0.165064 0)
(-0.0889966 -0.578931 0)
(0.231898 -0.56855 0)
(0.221459 -0.547459 0)
(0.393032 0.0595993 0)
(0.348318 0.0941603 0)
(-0.708557 -0.412572 0)
(0.439098 -1.38555 0)
(0.51134 0.447717 0)
(2.35448 0.175473 0)
(2.80602 0.0365871 0)
(2.7263 0.205958 0)
(2.69481 0.296829 0)
(2.08327 0.735891 0)
(0.678063 1.0545 0)
(0.0478344 0.485142 0)
(0.0410362 -0.209114 0)
(0.0965796 -0.0236634 0)
(0.544556 0.0120397 0)
(0.170203 -0.0115605 0)
(0.214816 -0.752573 0)
(0.368444 -0.738309 0)
(0.342251 -0.586141 0)
(0.452029 -0.173134 0)
(1.05932 0.347516 0)
(-0.519769 -0.167464 0)
(0.497638 -1.39237 0)
(0.271881 0.0438559 0)
(1.16151 0.137858 0)
(0.904473 -0.243143 0)
(0.985275 -0.0437483 0)
(1.9605 0.495404 0)
(2.83341 1.32126 0)
(2.45801 1.60907 0)
(2.41649 1.34982 0)
(1.88598 0.102186 0)
(0.313664 0.0184042 0)
(0.59601 -0.0091648 0)
(0.373264 -0.106181 0)
(0.411055 -0.607998 0)
(0.442308 -0.775695 0)
(0.406297 -0.575052 0)
(0.440918 -0.170982 0)
(0.996569 0.290831 0)
(-0.520165 -0.085887 0)
(0.521195 -1.38687 0)
(0.0378692 -0.107772 0)
(0.0633323 -0.109576 0)
(0.127919 -0.117176 0)
(0.13925 -0.0821449 0)
(0.228884 -0.111335 0)
(0.192216 -0.119313 0)
(0.194261 -0.141308 0)
(0.231897 -0.13157 0)
(0.229602 -0.109234 0)
(0.252712 -0.0953842 0)
(0.25536 -0.0629239 0)
(0.279628 -0.0334575 0)
(0.267833 -0.00960055 0)
(0.279065 -0.00154279 0)
(0.270767 0.0253918 0)
(0.26263 0.0397731 0)
(0.242718 0.0747328 0)
(0.215214 0.0888226 0)
(0.227635 0.143009 0)
(0.22942 0.122965 0)
(0.337983 0.148455 0)
(0.391976 0.284065 0)
(0.278724 0.44835 0)
(0.042925 -0.121716 0)
(0.0482499 -0.125837 0)
(0.14048 -0.128168 0)
(0.121153 -0.141196 0)
(0.135643 -0.13313 0)
(0.174 -0.179051 0)
(0.204337 -0.138048 0)
(0.225472 -0.156362 0)
(0.261435 -0.141515 0)
(0.281031 -0.112414 0)
(0.306448 -0.0844429 0)
(0.313473 -0.0396058 0)
(0.307648 -0.0194385 0)
(0.313127 0.00499864 0)
(0.296896 0.0224442 0)
(0.313405 0.0566271 0)
(0.29117 0.0744889 0)
(0.310614 0.141976 0)
(0.27544 0.138501 0)
(0.247687 0.196776 0)
(0.350715 0.172978 0)
(0.564152 0.224589 0)
(0.396495 0.30527 0)
(0.0231357 -0.156883 0)
(0.0370683 -0.161824 0)
(0.0803466 -0.159393 0)
(0.102039 -0.198918 0)
(0.13716 -0.174441 0)
(0.155464 -0.190718 0)
(0.198335 -0.193157 0)
(0.225993 -0.194305 0)
(0.255766 -0.170213 0)
(0.263122 -0.144332 0)
(0.287775 -0.0984721 0)
(0.276196 -0.0377643 0)
(0.317002 -0.0124498 0)
(0.307031 0.0106816 0)
(0.321292 0.026702 0)
(0.312998 0.0497775 0)
(0.348366 0.0828731 0)
(0.317829 0.114747 0)
(0.305399 0.103275 0)
(0.297257 0.172877 0)
(0.365624 0.155008 0)
(0.50044 0.235358 0)
(0.461438 0.177805 0)
(0.0179962 -0.180848 0)
(0.0118122 -0.180034 0)
(0.0455928 -0.19195 0)
(0.0354062 -0.191475 0)
(0.0545815 -0.188845 0)
(0.0662682 -0.228349 0)
(0.073115 -0.205725 0)
(0.0739284 -0.204971 0)
(0.0729934 -0.179602 0)
(0.0514133 -0.138945 0)
(0.0481771 -0.0917211 0)
(0.0241934 -0.058905 0)
(0.0832539 -0.0732291 0)
(0.110509 -0.00160593 0)
(0.165032 0.0190625 0)
(0.17492 0.0375955 0)
(0.274018 0.069621 0)
(0.296333 0.0743378 0)
(0.32684 0.122214 0)
(0.302598 0.162639 0)
(0.373745 0.19327 0)
(0.441851 0.159986 0)
(0.420358 0.20699 0)
(0.00324906 -0.189245 0)
(0.0051603 -0.18945 0)
(0.0160416 -0.189094 0)
(0.0179438 -0.208201 0)
(0.0294138 -0.207947 0)
(0.0421725 -0.21548 0)
(0.0421708 -0.206941 0)
(0.0526686 -0.193367 0)
(0.0536977 -0.15401 0)
(0.0316761 -0.120226 0)
(0.0214386 -0.0746587 0)
(-0.0257603 -0.0799372 0)
(-0.0369676 -0.187546 0)
(-0.0428038 -0.0677514 0)
(-0.0304814 -0.0349601 0)
(-0.0614579 -0.0570216 0)
(0.116354 -0.0453762 0)
(0.197942 0.0545196 0)
(0.269784 0.108446 0)
(0.257051 0.134442 0)
(0.318989 0.177458 0)
(0.448187 0.0647955 0)
(0.356801 0.107012 0)
(0.00363067 -0.190625 0)
(0.00657072 -0.19582 0)
(0.0135226 -0.205955 0)
(0.019058 -0.206291 0)
(0.0245083 -0.216562 0)
(0.0300034 -0.237124 0)
(0.0342599 -0.223533 0)
(0.0338775 -0.21573 0)
(0.0321783 -0.164566 0)
(0.0198245 -0.107447 0)
(0.0195802 -0.0341332 0)
(-0.013921 -0.00146746 0)
(-0.0576371 -0.100279 0)
(-0.0816407 0.0118317 0)
(-0.074957 0.00951583 0)
(-0.107346 -0.075743 0)
(-0.0409216 -0.187146 0)
(0.0352354 -0.0633253 0)
(0.228253 0.0578633 0)
(0.25275 0.124336 0)
(0.432701 0.180343 0)
(0.42742 0.110183 0)
(0.281364 0.00705255 0)
(0.000831536 -0.198241 0)
(0.00549693 -0.2002 0)
(-0.00240873 -0.197322 0)
(0.00745942 -0.213642 0)
(-0.00325155 -0.215391 0)
(-0.0248469 -0.21669 0)
(-0.0216766 -0.204105 0)
(-0.0521572 -0.181341 0)
(-0.0775406 -0.131469 0)
(-0.0903352 -0.106384 0)
(-0.0986367 -0.0362911 0)
(-0.0840595 -0.0212629 0)
(-0.0439129 -0.150156 0)
(-0.0844504 -0.00229643 0)
(0.0336498 -0.00462993 0)
(0.0656243 -0.0760974 0)
(-0.0490702 -0.215224 0)
(-0.0513836 -0.124813 0)
(0.270555 -0.0036912 0)
(0.186976 0.0278991 0)
(0.381073 0.0909453 0)
(0.43727 -0.125607 0)
(0.43993 0.0188458 0)
(-0.00221164 -0.199384 0)
(-0.0163022 -0.192522 0)
(-0.056888 -0.205773 0)
(-0.0219333 -0.204053 0)
(-0.0726197 -0.195528 0)
(-0.0763853 -0.218034 0)
(-0.0423757 -0.205147 0)
(-0.106559 -0.172229 0)
(-0.169447 -0.129544 0)
(-0.159734 -0.0833432 0)
(-0.129574 -0.0297317 0)
(-0.0787442 -0.0521004 0)
(-0.127911 -0.114878 0)
(-0.201152 -0.0626198 0)
(-0.0814758 -0.141525 0)
(-0.100973 -0.208976 0)
(0.0626734 -0.286395 0)
(0.0439021 -0.221835 0)
(0.296409 -0.0838181 0)
(0.197339 -0.193576 0)
(0.280935 -0.10193 0)
(0.314219 -0.040785 0)
(0.258912 0.0924083 0)
(-0.000584497 -0.176032 0)
(-0.0516662 -0.181914 0)
(-0.093104 -0.193813 0)
(-0.0539236 -0.169512 0)
(-0.0989137 -0.217615 0)
(-0.10012 -0.192755 0)
(-0.0534247 -0.221014 0)
(-0.102473 -0.11656 0)
(-0.147419 -0.0924907 0)
(-0.138308 -0.0164433 0)
(-0.180212 -0.113132 0)
(-0.12409 -0.0732805 0)
(-0.0457837 -0.138226 0)
(-0.0689421 0.0638513 0)
(-0.0108386 -0.0298788 0)
(0.0463949 -0.0492171 0)
(0.0185604 -0.171345 0)
(0.0488741 -0.177175 0)
(0.269909 -0.0808586 0)
(0.259885 -0.0991439 0)
(0.0491976 -0.236845 0)
(0.155995 -0.0988181 0)
(0.0845014 -0.0408556 0)
(-0.0495705 -0.150821 0)
(-0.0652311 -0.168463 0)
(-0.0644038 -0.200173 0)
(-0.0546513 -0.155614 0)
(-0.0960188 -0.215455 0)
(-0.0757466 -0.207955 0)
(-0.0702213 -0.185415 0)
(-0.0970399 -0.100398 0)
(-0.0791557 -0.0735871 0)
(-0.153453 -0.0809694 0)
(-0.197091 -0.143922 0)
(-0.133202 -0.040116 0)
(-0.117073 -0.211791 0)
(-0.115984 -0.100823 0)
(-0.0850832 -0.225232 0)
(-0.0668856 -0.19734 0)
(-0.00235769 -0.300357 0)
(-0.0482157 -0.315984 0)
(0.0633423 -0.19544 0)
(0.0743419 0.00805009 0)
(-0.020803 -0.162032 0)
(-0.102365 -0.0729618 0)
(-0.241991 -0.144638 0)
(-0.0489756 -0.111939 0)
(-0.0486444 -0.113088 0)
(-0.0471136 -0.195197 0)
(-0.0205737 -0.13687 0)
(-0.0736061 -0.183508 0)
(-0.0420479 -0.212775 0)
(-0.0876778 -0.195297 0)
(-0.0763754 -0.0947768 0)
(-0.0542518 -0.0490464 0)
(-0.0800087 -0.05111 0)
(-0.108756 -0.134311 0)
(-0.225289 -0.0497368 0)
(-0.195435 -0.12139 0)
(-0.127081 -0.107246 0)
(-0.101624 -0.191601 0)
(-0.141358 -0.147918 0)
(-0.202633 -0.217473 0)
(-0.191556 -0.225558 0)
(-0.300384 -0.127583 0)
(-0.430383 -0.0895366 0)
(-0.41617 -0.0126097 0)
(-0.266359 -0.0475422 0)
(-0.431046 -0.0841338 0)
(-0.0590401 -0.107923 0)
(-0.0263832 -0.131534 0)
(-0.0283919 -0.236467 0)
(-0.0138122 -0.150809 0)
(-0.057302 -0.186154 0)
(-0.0473603 -0.239153 0)
(-0.127651 -0.201152 0)
(-0.110697 -0.0849635 0)
(-0.0694195 -0.0423845 0)
(-0.196035 -0.165537 0)
(-0.174255 -0.105723 0)
(-0.120687 -0.107575 0)
(-0.15742 -0.0384627 0)
(-0.186778 -0.156111 0)
(-0.117862 -0.196636 0)
(-0.228004 -0.335135 0)
(-0.288619 -0.226016 0)
(-0.254071 -0.225758 0)
(-0.475902 -0.0967555 0)
(-0.40942 -0.168892 0)
(-0.229004 0.0029769 0)
(-0.347224 -0.142727 0)
(-0.540789 -0.10029 0)
(-0.0725238 -0.058451 0)
(-0.010714 -0.0881705 0)
(-0.0210398 -0.208571 0)
(0.00403707 -0.0678049 0)
(-0.0700223 -0.143257 0)
(-0.0508055 -0.196764 0)
(-0.124445 -0.16496 0)
(-0.0901486 -0.016003 0)
(-0.202729 -0.0392553 0)
(-0.170394 -0.0978001 0)
(-0.0913671 0.00111217 0)
(-0.167608 -0.0627325 0)
(-0.118091 0.00417003 0)
(-0.216503 -0.150063 0)
(-0.263637 -0.193375 0)
(-0.210828 -0.208099 0)
(-0.215723 -0.183685 0)
(-0.147307 -0.289546 0)
(-0.341227 -0.27268 0)
(-0.517994 -0.0431715 0)
(-0.296232 -0.121963 0)
(-0.255482 -0.0715597 0)
(-0.194295 0.0223931 0)
(0.00037515 -0.0341886 0)
(0.0884916 -0.206121 0)
(-0.00480321 -0.268085 0)
(-0.0892171 -0.137743 0)
(-0.0939257 -0.185043 0)
(-0.113574 -0.177176 0)
(-0.158562 -0.120851 0)
(-0.148475 -0.138312 0)
(-0.236268 -0.0505711 0)
(-0.196382 -0.118158 0)
(-0.186332 -0.0538406 0)
(-0.113531 -0.0730672 0)
(-0.125547 0.0526691 0)
(-0.263865 -0.182992 0)
(-0.1372 -0.110804 0)
(-0.217251 -0.191531 0)
(-0.340111 -0.22673 0)
(-0.230394 -0.14286 0)
(-0.206759 -0.333834 0)
(-0.245972 -0.108898 0)
(-0.168459 -0.0792034 0)
(-0.23051 0.0153763 0)
(-0.21039 0.0399557 0)
(-0.0466565 -0.140286 0)
(0.0029753 -0.322525 0)
(-0.0404847 -0.305318 0)
(-0.0522497 -0.212528 0)
(-0.00354605 -0.245224 0)
(-0.0581615 -0.227122 0)
(-0.222069 -0.198912 0)
(-0.139033 -0.160892 0)
(-0.187065 -0.125159 0)
(-0.186916 -0.117057 0)
(-0.0974816 -0.0925496 0)
(-0.10906 -0.0543747 0)
(-0.1603 -0.0765662 0)
(-0.155465 -0.0987287 0)
(-0.0785049 0.0123497 0)
(-0.24119 -0.248383 0)
(-0.151379 -0.132538 0)
(-0.21247 -0.0968347 0)
(-0.208937 -0.180191 0)
(-0.141584 -0.103577 0)
(-0.133933 -0.129955 0)
(-0.125621 -0.0056632 0)
(-0.102826 0.0181285 0)
(-0.0123991 -0.138991 0)
(0.00334347 -0.266804 0)
(-0.0210447 -0.217966 0)
(-0.0416576 -0.152119 0)
(-0.0683436 -0.164192 0)
(-0.121039 -0.212177 0)
(-0.127129 -0.172229 0)
(-0.089973 -0.0302797 0)
(-0.158725 -0.140009 0)
(-0.14132 -0.0887452 0)
(-0.144085 -0.105818 0)
(-0.129228 -0.038867 0)
(-0.155992 -0.0572764 0)
(-0.12638 -0.119622 0)
(-0.189309 -0.210322 0)
(-0.173466 -0.146396 0)
(-0.150387 -0.129654 0)
(-0.222521 -0.122314 0)
(-0.0716834 -0.105675 0)
(-0.0910206 -0.171186 0)
(-0.0439965 -0.0964171 0)
(-0.0535846 -0.0151262 0)
(-0.0181633 0.00475713 0)
(0.0119535 -0.117724 0)
(0.0247577 -0.298224 0)
(-0.0277914 -0.232672 0)
(-0.0185071 -0.192243 0)
(-0.0409272 -0.182263 0)
(-0.0650622 -0.141394 0)
(-0.139662 -0.072801 0)
(-0.107756 -0.0652405 0)
(-0.204996 -0.0482003 0)
(-0.116038 -0.124336 0)
(-0.0945507 -0.124057 0)
(-0.0870805 0.0119956 0)
(-0.188554 -0.0825884 0)
(-0.220318 -0.0598947 0)
(-0.0642313 -0.187692 0)
(-0.0709097 -0.0483143 0)
(-0.111196 -0.223765 0)
(-0.105151 -0.156664 0)
(-0.0646502 -0.181747 0)
(-0.0559737 -0.178606 0)
(-0.00296967 -0.117636 0)
(-0.0175332 -0.0523073 0)
(-0.0177563 0.0222587 0)
(-0.0780973 -0.0465302 0)
(-0.0382277 -0.179328 0)
(0.00590485 -0.125874 0)
(0.013924 -0.138771 0)
(-0.0211071 -0.165695 0)
(-0.0289281 -0.124643 0)
(-0.109883 -0.115579 0)
(-0.0487254 0.0164001 0)
(-0.101965 -0.108795 0)
(-0.150395 -0.0527291 0)
(-0.0670139 -0.0980031 0)
(-0.100483 0.00985503 0)
(-0.130943 -0.0522247 0)
(-0.074366 -0.00352322 0)
(-0.104 -0.163917 0)
(-0.138497 -0.237785 0)
(-0.17223 -0.236823 0)
(-0.0296843 -0.193436 0)
(-0.0122751 -0.20375 0)
(0.00533022 -0.176465 0)
(0.0240201 -0.133967 0)
(0.0509124 -0.069724 0)
(0.0300024 -0.00165051 0)
(-0.0709274 -0.00897443 0)
(-0.0222499 -0.146434 0)
(-0.0551688 -0.115684 0)
(-0.0781535 -0.128229 0)
(-0.0321712 -0.10642 0)
(-0.0319899 -0.0919456 0)
(-0.0538332 -0.0532547 0)
(-0.0659495 0.0334761 0)
(-0.108897 -0.084531 0)
(-0.0279857 -0.14427 0)
(-0.134068 -0.0472005 0)
(-0.052656 -0.0148658 0)
(-0.126579 -0.00665685 0)
(-0.186437 -0.0850861 0)
(-0.103906 -0.131226 0)
(-0.0765394 -0.172358 0)
(-0.0260725 -0.142545 0)
(0.00334147 -0.168659 0)
(-0.00509467 -0.202983 0)
(0.0271646 -0.197544 0)
(0.0325558 -0.145107 0)
(0.0283248 -0.0381149 0)
(0.0356813 0.0486452 0)
(-0.0220034 0.00623108 0)
(-0.0113833 -0.148464 0)
(-0.0504649 -0.125956 0)
(-0.00663398 -0.059615 0)
(-0.0296485 -0.100502 0)
(-0.0213833 -0.0215564 0)
(-0.0348433 -0.0593861 0)
(-0.0326562 -0.000885805 0)
(-0.0749914 -0.0276768 0)
(-0.0624566 -0.165704 0)
(-0.0220715 -0.0485075 0)
(-0.0879192 0.0702135 0)
(-0.118472 -0.0639196 0)
(-0.0222292 -0.0468929 0)
(-0.0597657 -0.131193 0)
(-0.0509301 -0.120871 0)
(-0.0357714 -0.145195 0)
(-0.0127657 -0.203555 0)
(0.0029057 -0.227056 0)
(0.0343687 -0.211666 0)
(0.0350506 -0.138935 0)
(0.0149238 -0.0326862 0)
(0.0158554 0.0142991 0)
(-0.0575841 0.0237617 0)
(-0.0227243 -0.150394 0)
(-0.0638852 -0.0937028 0)
(-0.030426 -0.0545238 0)
(-0.0412776 -0.0944669 0)
(-0.023652 -0.0275725 0)
(-0.059376 -0.0257244 0)
(0.00149562 0.0580887 0)
(-0.07808 -0.0536062 0)
(-0.0159469 -0.122128 0)
(0.0151888 -0.00669456 0)
(-0.0149327 0.0297303 0)
(-0.0641326 0.0585309 0)
(-0.012973 -0.0709942 0)
(-0.0298618 -0.152971 0)
(-0.0163169 -0.137807 0)
(-0.00347529 -0.172225 0)
(0.0202272 -0.205132 0)
(0.0156862 -0.232006 0)
(0.0299199 -0.211299 0)
(0.0184793 -0.138919 0)
(-0.0130432 -0.0303283 0)
(0.0500079 0.0163614 0)
(-0.0183584 0.10276 0)
(0.000650525 -0.139641 0)
(-0.0254115 -0.0731581 0)
(0.00878108 -0.114784 0)
(-0.0587359 -0.0726088 0)
(0.0093645 -0.0398524 0)
(-0.0483923 0.00120795 0)
(0.0673614 0.00702099 0)
(0.0265412 0.0213351 0)
(-0.00434106 -0.107724 0)
(-0.00976644 -0.017841 0)
(-0.0221273 0.0740184 0)
(0.00140654 0.00941042 0)
(0.0391616 -0.0863052 0)
(0.00420321 -0.130097 0)
(0.0078016 -0.155052 0)
(0.0049961 -0.178449 0)
(0.0193457 -0.215545 0)
(0.0251207 -0.22935 0)
(0.0271338 -0.221195 0)
(0.0267283 -0.107815 0)
(0.00313838 -0.0521219 0)
(0.0385744 -0.020315 0)
(0.0842498 -0.00831293 0)
(0.038902 -0.143081 0)
(-0.0415929 -0.111638 0)
(-0.0244959 -0.149191 0)
(-0.0536407 -0.115249 0)
(-0.0657372 -0.0891557 0)
(-0.0578348 -0.0678139 0)
(-0.0159453 -0.0220041 0)
(-0.00556699 -0.0180926 0)
(0.0126968 -0.0983578 0)
(0.00251378 -0.00520947 0)
(-0.035786 0.112256 0)
(0.0147252 -0.0371974 0)
(0.0427647 -0.0629508 0)
(0.0162546 -0.124529 0)
(0.0283836 -0.123481 0)
(0.0503425 -0.184802 0)
(0.0622864 -0.214981 0)
(0.0522351 -0.256684 0)
(0.0404376 -0.161016 0)
(0.0233376 -0.145036 0)
(0.0102153 -0.0480559 0)
(0.0795462 -0.0471526 0)
(0.0119679 -0.0750463 0)
(0.0112615 -0.166397 0)
(0.00544837 -0.145774 0)
(0.00665628 -0.151731 0)
(-0.0110149 -0.123851 0)
(-0.00293899 -0.130222 0)
(0.00327818 -0.0745686 0)
(0.0259375 -0.0745307 0)
(0.0663735 -0.0553234 0)
(0.0208678 -0.0991839 0)
(-0.0342351 -7.49676e-05 0)
(0.041537 0.00519639 0)
(0.102783 -0.0697503 0)
(0.0803126 -0.065532 0)
(0.0655609 -0.123745 0)
(0.0847487 -0.188099 0)
(0.0401347 -0.201335 0)
(0.0515976 -0.220717 0)
(0.0821968 -0.258795 0)
(0.0209794 -0.238899 0)
(-0.0215323 -0.212734 0)
(0.0289312 -0.14942 0)
(-0.0308434 -0.0470696 0)
(0.00375508 -0.0509425 0)
(0.00209964 -0.116309 0)
(-0.00778803 -0.115791 0)
(-0.00458684 -0.120223 0)
(-0.012655 -0.106139 0)
(-0.00879721 -0.107874 0)
(-0.0112649 -0.0921634 0)
(-0.00484404 -0.0880019 0)
(0.0179476 -0.0931265 0)
(0.000752151 -0.112362 0)
(0.0277589 -0.0450657 0)
(0.0133424 -0.0658977 0)
(0.071622 -0.0566811 0)
(0.0582119 -0.104398 0)
(0.0428136 -0.135138 0)
(0.0734943 -0.230872 0)
(0.104015 -0.209013 0)
(0.0820478 -0.249344 0)
(0.0335669 -0.241982 0)
(0.048096 -0.265838 0)
(0.0830262 -0.19702 0)
(0.0703121 -0.19455 0)
(0.109844 -0.100724 0)
(0.00169403 -0.0868205 0)
(0.008322 -0.13893 0)
(0.00637221 -0.136416 0)
(0.0124711 -0.13463 0)
(0.00968905 -0.122799 0)
(0.013763 -0.124081 0)
(0.0182841 -0.105114 0)
(0.021699 -0.100269 0)
(0.033689 -0.084376 0)
(0.0265338 -0.083782 0)
(0.0346424 -0.05701 0)
(0.0453003 -0.0689598 0)
(0.0549164 -0.0417995 0)
(0.0578316 -0.0939778 0)
(0.0661877 -0.154098 0)
(0.0807238 -0.12503 0)
(0.116925 -0.214808 0)
(0.104259 -0.233022 0)
(0.0694222 -0.231284 0)
(0.058252 -0.234184 0)
(0.0709879 -0.22235 0)
(0.117009 -0.189279 0)
(0.136048 -0.105674 0)
(-0.000600631 -0.0727008 0)
(0.00533668 -0.127535 0)
(0.0019252 -0.125696 0)
(0.0074198 -0.12765 0)
(0.00733233 -0.109348 0)
(0.0112005 -0.124925 0)
(0.0145641 -0.10902 0)
(0.0191646 -0.117063 0)
(0.0259823 -0.104082 0)
(0.0283039 -0.111787 0)
(0.0398118 -0.0859863 0)
(0.0395743 -0.102065 0)
(0.0592365 -0.0842098 0)
(0.0475102 -0.114023 0)
(0.0858103 -0.150364 0)
(0.0891214 -0.149289 0)
(0.131593 -0.205772 0)
(0.129619 -0.227797 0)
(0.0280024 -0.219312 0)
(0.0842884 -0.226552 0)
(0.148173 -0.273265 0)
(0.181558 -0.241095 0)
(0.18669 -0.138718 0)
(-0.00264181 -0.0949935 0)
(0.011346 -0.140176 0)
(0.0105108 -0.141722 0)
(0.0259155 -0.140451 0)
(0.022106 -0.135412 0)
(0.0212014 -0.134397 0)
(0.0284511 -0.124913 0)
(0.0333124 -0.120021 0)
(0.0373658 -0.106287 0)
(0.0437844 -0.107232 0)
(0.0467238 -0.0858562 0)
(0.0571499 -0.100081 0)
(0.0607801 -0.0699637 0)
(0.0626449 -0.113147 0)
(0.0837835 -0.121342 0)
(0.15505 -0.156743 0)
(0.16729 -0.263408 0)
(0.131042 -0.252858 0)
(0.0596881 -0.190278 0)
(0.0864493 -0.283767 0)
(0.128421 -0.304648 0)
(0.244022 -0.241285 0)
(0.205365 -0.128637 0)
(8.86894e-05 -0.0915085 0)
(0.0108884 -0.134044 0)
(0.008866 -0.141244 0)
(0.019417 -0.140722 0)
(0.0174122 -0.146339 0)
(0.0273758 -0.139585 0)
(0.0251137 -0.132764 0)
(0.0352286 -0.134861 0)
(0.0359779 -0.125388 0)
(0.0479099 -0.128565 0)
(0.04898 -0.113637 0)
(0.0632226 -0.126199 0)
(0.065185 -0.0990283 0)
(0.0771013 -0.130526 0)
(0.0941324 -0.126771 0)
(0.0857005 -0.198334 0)
(0.158662 -0.28045 0)
(0.192075 -0.262868 0)
(0.021701 -0.181431 0)
(0.0951343 -0.304365 0)
(0.200322 -0.2394 0)
(0.253881 -0.307728 0)
(0.213441 -0.135135 0)
(0.000746877 -0.116244 0)
(0.0143213 -0.156591 0)
(0.0140332 -0.158718 0)
(0.0254324 -0.156854 0)
(0.0249051 -0.152094 0)
(0.0343335 -0.148885 0)
(0.0361346 -0.141259 0)
(0.0471618 -0.140481 0)
(0.0463102 -0.13229 0)
(0.059496 -0.131863 0)
(0.0525384 -0.118729 0)
(0.0728967 -0.131054 0)
(0.0589656 -0.102258 0)
(0.085265 -0.142269 0)
(0.073661 -0.138252 0)
(0.131 -0.208741 0)
(0.184574 -0.184312 0)
(0.188344 -0.268666 0)
(0.0674634 -0.29441 0)
(0.137899 -0.238302 0)
(0.148849 -0.202895 0)
(0.230746 -0.225629 0)
(0.372873 -0.162105 0)
(0.0018583 -0.122753 0)
(0.0125417 -0.161515 0)
(0.0124449 -0.16453 0)
(0.0224831 -0.16344 0)
(0.0224589 -0.164331 0)
(0.0334635 -0.163067 0)
(0.0329295 -0.15777 0)
(0.0453294 -0.155722 0)
(0.04266 -0.14915 0)
(0.0583247 -0.141881 0)
(0.0470857 -0.138626 0)
(0.0731977 -0.139641 0)
(0.0435542 -0.120489 0)
(0.0898254 -0.146467 0)
(0.128893 -0.162425 0)
(0.151726 -0.15815 0)
(0.119028 -0.241806 0)
(0.0999772 -0.330086 0)
(0.130442 -0.266232 0)
(0.208337 -0.249389 0)
(0.200243 -0.230708 0)
(0.228249 -0.237252 0)
(0.284683 -0.220989 0)
(0.00137282 -0.144527 0)
(0.0148213 -0.177478 0)
(0.0133611 -0.17784 0)
(0.0251213 -0.176757 0)
(0.0245353 -0.172943 0)
(0.0361345 -0.169792 0)
(0.0347102 -0.163327 0)
(0.0471809 -0.16078 0)
(0.0445464 -0.15584 0)
(0.0603082 -0.142767 0)
(0.052095 -0.144575 0)
(0.0761178 -0.128056 0)
(0.0508677 -0.129482 0)
(0.105176 -0.121293 0)
(0.158739 -0.169255 0)
(0.149614 -0.219686 0)
(0.0977686 -0.281695 0)
(0.172854 -0.287778 0)
(0.230383 -0.209426 0)
(0.201295 -0.285859 0)
(0.132693 -0.216425 0)
(0.220438 -0.293278 0)
(0.37702 -0.238724 0)
(0.00185812 -0.156259 0)
(0.0123385 -0.18618 0)
(0.0122215 -0.186018 0)
(0.0225938 -0.186904 0)
(0.0227361 -0.186707 0)
(0.0338692 -0.185255 0)
(0.0350772 -0.179453 0)
(0.0473325 -0.178068 0)
(0.0469051 -0.173226 0)
(0.0614107 -0.161835 0)
(0.0627809 -0.163852 0)
(0.0799243 -0.147583 0)
(0.0792522 -0.163291 0)
(0.109282 -0.133598 0)
(0.110442 -0.178965 0)
(0.115234 -0.240613 0)
(0.116792 -0.228057 0)
(0.188405 -0.23524 0)
(0.211312 -0.254443 0)
(0.254572 -0.364204 0)
(0.149036 -0.238371 0)
(0.186312 -0.179142 0)
(0.294218 -0.271228 0)
(0.000830574 -0.171944 0)
(0.0129155 -0.197278 0)
(0.011047 -0.197024 0)
(0.0229333 -0.197297 0)
(0.0216777 -0.193661 0)
(0.0334052 -0.194816 0)
(0.0326734 -0.187625 0)
(0.0439198 -0.18584 0)
(0.0437484 -0.180369 0)
(0.0509389 -0.177614 0)
(0.0595181 -0.174356 0)
(0.0552917 -0.168366 0)
(0.0830235 -0.174723 0)
(0.131598 -0.159853 0)
(0.117678 -0.170648 0)
(0.177014 -0.2344 0)
(0.127351 -0.249029 0)
(0.149315 -0.275769 0)
(0.130199 -0.368506 0)
(0.230728 -0.405584 0)
(0.234992 -0.33582 0)
(0.138458 -0.210702 0)
(0.252525 -0.270455 0)
(0.00112459 -0.185573 0)
(0.0108051 -0.207731 0)
(0.00917632 -0.207705 0)
(0.0199358 -0.209358 0)
(0.0182186 -0.208193 0)
(0.0304475 -0.209127 0)
(0.0292373 -0.200219 0)
(0.044342 -0.202924 0)
(0.043349 -0.185578 0)
(0.0563683 -0.196364 0)
(0.0588332 -0.166838 0)
(0.0644915 -0.198647 0)
(0.0853202 -0.10031 0)
(0.156094 -0.1439 0)
(0.10055 -0.209497 0)
(0.11029 -0.237078 0)
(0.0986577 -0.306777 0)
(0.120436 -0.253884 0)
(0.152467 -0.314575 0)
(0.245918 -0.178749 0)
(0.245508 -0.295569 0)
(0.231492 -0.30082 0)
(0.309451 -0.282441 0)
(3.33341e-05 -0.19337 0)
(0.0120399 -0.211008 0)
(0.00880717 -0.212781 0)
(0.0216944 -0.213242 0)
(0.0173399 -0.212338 0)
(0.0317728 -0.21547 0)
(0.0268128 -0.213017 0)
(0.046439 -0.212772 0)
(0.0385968 -0.203163 0)
(0.0678051 -0.205239 0)
(0.0504908 -0.194779 0)
(0.0934175 -0.215807 0)
(0.164801 -0.131085 0)
(0.11455 -0.181284 0)
(0.0988039 -0.233746 0)
(0.109057 -0.263478 0)
(0.124622 -0.245891 0)
(0.168328 -0.236585 0)
(0.213304 -0.282767 0)
(0.243855 -0.232653 0)
(0.134028 -0.35501 0)
(0.195325 -0.26645 0)
(0.249883 -0.415798 0)
(-0.000334378 -0.21225 0)
(0.0107436 -0.227804 0)
(0.00766202 -0.228978 0)
(0.0194325 -0.229156 0)
(0.0149654 -0.229638 0)
(0.0295456 -0.230733 0)
(0.0218279 -0.230075 0)
(0.0406482 -0.229773 0)
(0.0318014 -0.225169 0)
(0.0559842 -0.227018 0)
(0.0388794 -0.20398 0)
(0.0724777 -0.180196 0)
(0.123214 -0.0996818 0)
(0.118391 -0.200297 0)
(0.084571 -0.205271 0)
(0.113492 -0.232256 0)
(0.128791 -0.230468 0)
(0.137838 -0.2715 0)
(0.134695 -0.34278 0)
(0.065166 -0.414957 0)
(0.200923 -0.400206 0)
(0.156169 -0.339796 0)
(0.215406 -0.457286 0)
(-1.39795e-05 -0.207788 0)
(0.0106362 -0.220911 0)
(0.00735986 -0.223502 0)
(0.0195377 -0.22244 0)
(0.0140451 -0.225856 0)
(0.0305282 -0.225221 0)
(0.0192682 -0.22965 0)
(0.0449674 -0.229859 0)
(0.0221747 -0.230859 0)
(0.0685315 -0.214706 0)
(0.0949548 -0.223125 0)
(0.145512 -0.205496 0)
(0.171323 -0.186331 0)
(0.100872 -0.283056 0)
(0.0880195 -0.221223 0)
(0.0825385 -0.221151 0)
(0.0925992 -0.249407 0)
(0.108694 -0.257856 0)
(0.0980967 -0.344379 0)
(0.117708 -0.360921 0)
(0.228564 -0.28588 0)
(0.125848 -0.404871 0)
(0.167369 -0.326354 0)
(5.94347e-05 -0.242192 0)
(0.00832952 -0.251672 0)
(0.00521746 -0.25478 0)
(0.0148288 -0.252127 0)
(0.00922966 -0.25805 0)
(0.0229298 -0.251495 0)
(0.0101238 -0.262447 0)
(0.0339529 -0.246051 0)
(0.0380243 -0.265612 0)
(0.0577086 -0.231042 0)
(0.0513178 -0.273435 0)
(0.103912 -0.260284 0)
(0.0690225 -0.30117 0)