/*--------------------------------*- C++ -*----------------------------------*\
| =========                 |                                                 |
| \\      /  F ield         | foam-extend: Open Source CFD                    |
|  \\    /   O peration     | Version:     4.1                                |
|   \\  /    A nd           | Web:         http://www.foam-extend.org         |
|    \\/     M anipulation  |                                                 |
\*---------------------------------------------------------------------------*/
FoamFile
{
    version     2.0;
    format      ascii;
    class       volVectorField;
    location    "0.4";
    object      U_0;
}
// * * * * * * * * * * * * * * * * * * * * * * * * * * * * * * * * * * * * * //

dimensions      [0 1 -1 0 0 0 0];

internalField   nonuniform List<vector> 
2268
(
(0.0477264 -0.00639675 0)
(0.0539608 -0.00524158 0)
(0.13569 -0.00701425 0)
(0.165979 -0.00572194 0)
(0.237371 -0.0029375 0)
(0.264411 -0.007094 0)
(0.318737 -0.00260443 0)
(0.34406 -0.00192163 0)
(0.402628 -0.00262231 0)
(0.390208 0.0220007 0)
(0.318681 -0.0670211 0)
(0.318166 -0.0299862 0)
(0.351988 -0.0216032 0)
(0.349057 -0.012741 0)
(0.357103 -0.0113753 0)
(0.329543 -0.0112896 0)
(0.345586 -0.0393645 0)
(0.349639 -0.0152934 0)
(0.293999 -0.0247588 0)
(0.270466 0.0460085 0)
(0.178699 0.0598158 0)
(0.161071 0.0181934 0)
(0.19967 0.00116319 0)
(0.0470378 -0.0176398 0)
(0.054961 -0.0154896 0)
(0.135723 -0.0198521 0)
(0.166974 -0.0177474 0)
(0.232696 -0.0210754 0)
(0.268902 -0.0111909 0)
(0.331511 -0.0173641 0)
(0.355651 -0.0175494 0)
(0.419211 -0.0100746 0)
(0.375937 -0.00212303 0)
(0.32442 -0.0546462 0)
(0.341281 -0.0106452 0)
(0.369313 -0.000131345 0)
(0.363993 0.00848173 0)
(0.37068 0.0188597 0)
(0.330187 0.0324339 0)
(0.351119 0.0247835 0)
(0.404183 0.0440986 0)
(0.348158 0.0542402 0)
(0.285094 0.0024109 0)
(0.149749 0.0404594 0)
(0.16564 0.133219 0)
(0.23431 0.0823074 0)
(0.043447 -0.030506 0)
(0.0543006 -0.0261173 0)
(0.135191 -0.0337746 0)
(0.166963 -0.0279468 0)
(0.227867 -0.0279425 0)
(0.286983 -0.0297977 0)
(0.327569 -0.0230932 0)
(0.360292 -0.0223156 0)
(0.430505 -0.00840226 0)
(0.345828 -0.11243 0)
(0.298977 -0.0661048 0)
(0.316311 -0.0276627 0)
(0.33268 -0.0186504 0)
(0.328581 -0.00916369 0)
(0.345087 0.00348605 0)
(0.316957 0.0168839 0)
(0.33731 0.0826588 0)
(0.351458 0.0348974 0)
(0.314294 0.0521932 0)
(0.262976 0.0169638 0)
(0.227095 0.0580223 0)
(0.168154 0.116554 0)
(0.194175 0.10349 0)
(0.0383638 -0.0407264 0)
(0.0547686 -0.0371331 0)
(0.13944 -0.0469251 0)
(0.168745 -0.0391893 0)
(0.231422 -0.0502267 0)
(0.292755 -0.0336077 0)
(0.32102 -0.0371268 0)
(0.393254 -0.0431853 0)
(0.354114 -0.027091 0)
(0.285461 -0.105027 0)
(0.283325 -0.0498294 0)
(0.271172 -0.0265523 0)
(0.284996 -0.0063972 0)
(0.273799 0.00452724 0)
(0.288394 0.0234928 0)
(0.277307 0.020637 0)
(0.291444 0.0803986 0)
(0.293435 0.0259549 0)
(0.282324 0.0331151 0)
(0.253765 0.0272108 0)
(0.196947 0.0879049 0)
(0.159482 0.128691 0)
(0.207959 0.163408 0)
(0.0319837 -0.0525387 0)
(0.0536866 -0.0499187 0)
(0.141195 -0.0608381 0)
(0.170756 -0.0489851 0)
(0.235253 -0.0584814 0)
(0.279418 -0.0507801 0)
(0.314667 -0.0461931 0)
(0.3941 -0.0266838 0)
(0.319929 -0.114296 0)
(0.253283 -0.0886961 0)
(0.258721 -0.0568337 0)
(0.25051 -0.0282695 0)
(0.26032 -0.0153496 0)
(0.251774 -0.00655723 0)
(0.25933 0.0219186 0)
(0.243849 0.0199605 0)
(0.242826 0.0614205 0)
(0.230184 0.041251 0)
(0.205646 0.0693132 0)
(0.220694 0.0787754 0)
(0.210542 0.0981614 0)
(0.162559 0.175597 0)
(0.205548 0.191005 0)
(0.0292476 -0.0608697 0)
(0.0578582 -0.0628907 0)
(0.144398 -0.0751099 0)
(0.171185 -0.0614339 0)
(0.226658 -0.076888 0)
(0.270206 -0.0501913 0)
(0.342089 -0.0723164 0)
(0.296972 -0.0497637 0)
(0.245707 -0.112692 0)
(0.25125 -0.0832145 0)
(0.244901 -0.0500622 0)
(0.246533 -0.0283048 0)
(0.25081 -0.00751038 0)
(0.239693 0.00577923 0)
(0.246273 0.0314104 0)
(0.237894 0.0301963 0)
(0.234331 0.0846539 0)
(0.230377 0.0447512 0)
(0.216968 0.125437 0)
(0.201291 0.082171 0)
(0.204121 0.12413 0)
(0.16472 0.22415 0)
(0.200261 0.25211 0)
(0.0305687 -0.0732881 0)
(0.0615348 -0.0771375 0)
(0.140116 -0.0874824 0)
(0.160718 -0.0677123 0)
(0.224759 -0.082783 0)
(0.264725 -0.0822353 0)
(0.289523 -0.0428525 0)
(0.260142 -0.125027 0)
(0.231871 -0.104815 0)
(0.247308 -0.0865403 0)
(0.238086 -0.0569493 0)
(0.25558 -0.0303845 0)
(0.243258 -0.0115064 0)
(0.245482 2.17119e-05 0)
(0.241142 0.025481 0)
(0.251272 0.0295604 0)
(0.23065 0.0611283 0)
(0.229602 0.0591659 0)
(0.198949 0.0931412 0)
(0.18772 0.136635 0)
(0.246149 0.128693 0)
(0.167924 0.255961 0)
(0.198994 0.274621 0)
(0.0358079 -0.0821798 0)
(0.0677463 -0.0882002 0)
(0.138462 -0.099457 0)
(0.158325 -0.0837672 0)
(0.217437 -0.105244 0)
(0.268297 -0.0567596 0)
(0.226414 -0.090285 0)
(0.233001 -0.136127 0)
(0.228964 -0.111807 0)
(0.249345 -0.0880425 0)
(0.241381 -0.0561014 0)
(0.25859 -0.0315792 0)
(0.250657 -0.00441825 0)
(0.255088 0.00549436 0)
(0.255945 0.0295618 0)
(0.251367 0.0356573 0)
(0.244451 0.0330815 0)
(0.242643 0.0440936 0)
(0.24405 0.046792 0)
(0.202983 0.157528 0)
(0.238415 0.128419 0)
(0.191422 0.259788 0)
(0.165091 0.362773 0)
(-3.90653 0.969006 0)
(-5.19979 0.416092 0)
(-5.31373 -0.266662 0)
(-4.98662 -0.466624 0)
(-4.75309 -0.411231 0)
(-4.52021 -0.515414 0)
(-4.36142 -0.426648 0)
(-4.15038 -0.516141 0)
(-4.00338 -0.439241 0)
(-3.83153 -0.501691 0)
(-3.57438 -0.452986 0)
(-3.33454 -0.440746 0)
(-3.18351 -0.425256 0)
(-2.77579 -0.472198 0)
(-2.61813 -0.487454 0)
(-2.5475 -0.121246 0)
(-1.74729 -0.0723221 0)
(-1.46128 -0.393465 0)
(-0.534968 -0.214844 0)
(-3.1888 1.24031 0)
(-3.34595 1.18064 0)
(-1.59981 0.427422 0)
(-1.3609 0.153974 0)
(-1.41457 -0.016346 0)
(-1.3358 0.266181 0)
(-1.10445 0.182193 0)
(-1.03833 0.190577 0)
(-0.865091 0.107672 0)
(-0.817009 0.110041 0)
(-0.961174 0.0192712 0)
(-1.47334 -0.011482 0)
(-1.85307 -0.15992 0)
(-1.9804 -0.199434 0)
(-2.04759 -0.54422 0)
(-2.4248 -0.039699 0)
(-1.90589 0.374848 0)
(-1.04132 -0.426878 0)
(-0.274653 -0.725063 0)
(-2.20745 2.39815 0)
(-1.67844 1.64031 0)
(-0.438178 -0.607336 0)
(-1.72234 -0.50007 0)
(-1.85755 -0.325609 0)
(-1.85661 0.00535317 0)
(-1.47943 -0.485351 0)
(-1.38855 -0.482041 0)
(-1.22595 -0.441601 0)
(-1.08917 -0.183402 0)
(-1.07548 0.0456024 0)
(-1.34802 0.0292744 0)
(-1.4115 -0.462342 0)
(-1.32308 -0.518813 0)
(-1.40693 -0.933878 0)
(-1.96687 -0.49075 0)
(-1.71955 -0.128605 0)
(-0.97905 -0.250518 0)
(0.162254 -0.81042 0)
(-1.36033 2.02074 0)
(-0.467515 0.638522 0)
(2.01123 -0.298254 0)
(-1.03369 0.457089 0)
(-1.15815 0.381976 0)
(-0.442595 0.00231716 0)
(-0.0579544 -0.22653 0)
(-0.697573 -0.168467 0)
(-0.91654 -0.210604 0)
(-0.935392 -0.206103 0)
(-0.74071 0.0853064 0)
(-0.656877 0.179193 0)
(-0.763503 -0.223765 0)
(-0.548621 -0.433859 0)
(-0.473448 -0.481537 0)
(-0.511315 0.0279317 0)
(-0.972794 -0.142321 0)
(-0.986256 -0.392842 0)
(0.294521 -1.13822 0)
(-0.372669 2.89835 0)
(1.10178 0.953016 0)
(3.57203 -0.00644896 0)
(4.01161 -0.049692 0)
(3.6244 0.282273 0)
(2.86607 -0.0615501 0)
(1.09855 -0.174142 0)
(-0.387804 0.0964949 0)
(-0.464626 0.154342 0)
(-0.712197 -0.043045 0)
(-0.640146 -0.108348 0)
(-0.588991 0.0383035 0)
(-0.429835 -0.417162 0)
(-0.134456 -0.61784 0)
(-0.106421 -0.634544 0)
(0.384764 0.0232462 0)
(-0.223483 -0.129937 0)
(-0.806832 -0.321222 0)
(0.428912 -1.28893 0)
(0.824585 1.99448 0)
(4.20552 -0.102583 0)
(3.77819 0.218571 0)
(2.82256 0.00773359 0)
(1.86428 -0.194218 0)
(1.73551 0.665727 0)
(0.58612 0.743608 0)
(-0.508441 0.303775 0)
(-0.12009 -0.0607144 0)
(-0.0993761 0.11278 0)
(0.020491 0.0003428 0)
(-0.444739 -0.160795 0)
(-0.0981695 -0.562741 0)
(0.232434 -0.56102 0)
(0.216109 -0.547454 0)
(0.391636 0.0519273 0)
(0.324266 0.0751706 0)
(-0.711446 -0.42098 0)
(0.443518 -1.39313 0)
(0.51078 0.437301 0)
(2.34746 0.155867 0)
(2.82876 0.0451381 0)
(2.75108 0.217463 0)
(2.67619 0.307387 0)
(2.07916 0.817017 0)
(0.706916 1.05052 0)
(0.140799 0.477411 0)
(0.0531984 -0.202986 0)
(0.10896 -0.0235625 0)
(0.542086 0.0125821 0)
(0.157051 -0.00762669 0)
(0.206544 -0.745361 0)
(0.375055 -0.732906 0)
(0.344169 -0.586164 0)
(0.453077 -0.176695 0)
(1.06582 0.340597 0)
(-0.524156 -0.179466 0)
(0.499676 -1.40092 0)
(0.265363 0.0305352 0)
(1.12835 0.134721 0)
(0.877259 -0.242511 0)
(0.973416 -0.0321669 0)
(1.9605 0.554605 0)
(2.8434 1.37508 0)
(2.50701 1.65394 0)
(2.50535 1.32497 0)
(1.93552 0.0737936 0)
(0.327823 0.0298923 0)
(0.598247 -0.0040245 0)
(0.369705 -0.0984144 0)
(0.408802 -0.603805 0)
(0.448937 -0.770909 0)
(0.409172 -0.575568 0)
(0.44524 -0.177365 0)
(1.00405 0.280568 0)
(-0.5262 -0.0933009 0)
(0.522817 -1.38995 0)
(0.037839 -0.107736 0)
(0.0633447 -0.109595 0)
(0.127911 -0.117201 0)
(0.139316 -0.0821616 0)
(0.22902 -0.11148 0)
(0.192291 -0.119555 0)
(0.194387 -0.141562 0)
(0.232048 -0.131928 0)
(0.229792 -0.109651 0)
(0.252933 -0.0959348 0)
(0.255835 -0.0635917 0)
(0.280698 -0.0342834 0)
(0.268862 -0.0105195 0)
(0.280157 -0.00245153 0)
(0.272277 0.0249797 0)
(0.264345 0.0396437 0)
(0.24444 0.0749453 0)
(0.216802 0.0892945 0)
(0.229208 0.143825 0)
(0.231048 0.123838 0)
(0.339874 0.149179 0)
(0.393754 0.285349 0)
(0.280052 0.450286 0)
(0.0428995 -0.121772 0)
(0.0482493 -0.125979 0)
(0.140408 -0.128269 0)
(0.121064 -0.141384 0)
(0.135584 -0.133249 0)
(0.173974 -0.179119 0)
(0.204223 -0.138369 0)
(0.225428 -0.156768 0)
(0.261597 -0.142196 0)
(0.281226 -0.113212 0)
(0.307176 -0.0855398 0)
(0.314393 -0.0407161 0)
(0.308815 -0.0208573 0)
(0.314427 0.00417569 0)
(0.298537 0.0218063 0)
(0.315515 0.0563214 0)
(0.293187 0.0745628 0)
(0.312686 0.142683 0)
(0.277376 0.139329 0)
(0.249138 0.198112 0)
(0.352574 0.174556 0)
(0.566741 0.226006 0)
(0.398264 0.30678 0)
(0.0231904 -0.156802 0)
(0.0371639 -0.161761 0)
(0.0805363 -0.159328 0)
(0.102308 -0.198851 0)
(0.137266 -0.174575 0)
(0.156007 -0.190802 0)
(0.199091 -0.193334 0)
(0.227156 -0.195012 0)
(0.257486 -0.171178 0)
(0.265124 -0.145679 0)
(0.290009 -0.0997983 0)
(0.278355 -0.0390125 0)
(0.319004 -0.0140524 0)
(0.308859 0.0094812 0)
(0.323516 0.0256038 0)
(0.315548 0.0491835 0)
(0.351198 0.083164 0)
(0.320213 0.115434 0)
(0.30738 0.104123 0)
(0.299382 0.174246 0)
(0.367744 0.156545 0)
(0.502433 0.236971 0)
(0.463136 0.17906 0)
(0.0182596 -0.181183 0)
(0.0121095 -0.180432 0)
(0.0462854 -0.192275 0)
(0.0359689 -0.191576 0)
(0.0555807 -0.189278 0)
(0.0669998 -0.228972 0)
(0.0743998 -0.206623 0)
(0.07498 -0.206289 0)
(0.0741892 -0.181275 0)
(0.0526706 -0.140723 0)
(0.0499335 -0.0930363 0)
(0.0260128 -0.0595357 0)
(0.0855479 -0.0739134 0)
(0.112735 -0.0027313 0)
(0.167353 0.0172089 0)
(0.178144 0.0365129 0)
(0.278166 0.0695494 0)
(0.299242 0.0750444 0)
(0.329536 0.123448 0)
(0.304377 0.164528 0)
(0.375832 0.195272 0)
(0.444146 0.161788 0)
(0.421999 0.208369 0)
(0.00327235 -0.189645 0)
(0.00512251 -0.189745 0)
(0.0159626 -0.18931 0)
(0.0178827 -0.20845 0)
(0.0294644 -0.208214 0)
(0.0420564 -0.216074 0)
(0.0422747 -0.207606 0)
(0.052874 -0.194195 0)
(0.0540509 -0.15531 0)
(0.0322957 -0.122114 0)
(0.0224336 -0.0764247 0)
(-0.0252915 -0.0814947 0)
(-0.035463 -0.189812 0)
(-0.0412725 -0.0690903 0)
(-0.0277617 -0.0368322 0)
(-0.0577449 -0.0594308 0)
(0.120689 -0.0445984 0)
(0.202341 0.0562401 0)
(0.272722 0.110804 0)
(0.259447 0.13671 0)
(0.320983 0.180098 0)
(0.448932 0.0663494 0)
(0.358162 0.10888 0)
(0.00361453 -0.190884 0)
(0.00646523 -0.196168 0)
(0.0135023 -0.206202 0)
(0.0189444 -0.206624 0)
(0.0244598 -0.21705 0)
(0.0301923 -0.237989 0)
(0.0345143 -0.224802 0)
(0.0345722 -0.21718 0)
(0.0332781 -0.166658 0)
(0.0210014 -0.109899 0)
(0.0207518 -0.0357693 0)
(-0.0135682 -0.00238953 0)
(-0.0562271 -0.101363 0)
(-0.0799529 0.00879508 0)
(-0.0726399 0.00767854 0)
(-0.103222 -0.0804197 0)
(-0.037517 -0.188985 0)
(0.0402241 -0.0591527 0)
(0.231038 0.0609916 0)
(0.254892 0.127177 0)
(0.434129 0.18285 0)
(0.4291 0.111764 0)
(0.282192 0.00865467 0)
(0.000888072 -0.198401 0)
(0.00550914 -0.200466 0)
(-0.001983 -0.19764 0)
(0.00785222 -0.213886 0)
(-0.00246147 -0.215982 0)
(-0.0238415 -0.217435 0)
(-0.0207777 -0.205243 0)
(-0.0506767 -0.182737 0)
(-0.0760838 -0.133228 0)
(-0.089192 -0.108226 0)
(-0.0978273 -0.0376713 0)
(-0.0831287 -0.0220192 0)
(-0.0424466 -0.152541 0)
(-0.0818136 -0.00618286 0)
(0.0388687 -0.00835854 0)
(0.0679906 -0.0822699 0)
(-0.0494664 -0.216579 0)
(-0.048167 -0.1201 0)
(0.272464 -5.36754e-05 0)
(0.188806 0.0309059 0)
(0.382567 0.0939333 0)
(0.438164 -0.124542 0)
(0.441001 0.01934 0)
(-0.0021497 -0.199737 0)
(-0.0159073 -0.19312 0)
(-0.0558434 -0.206268 0)
(-0.0214487 -0.204747 0)
(-0.071915 -0.196366 0)
(-0.0757568 -0.218591 0)
(-0.0417538 -0.206329 0)
(-0.105242 -0.173976 0)
(-0.167954 -0.13132 0)
(-0.159121 -0.0851143 0)
(-0.129181 -0.0314433 0)
(-0.0779836 -0.0536334 0)
(-0.125323 -0.118633 0)
(-0.199303 -0.0656081 0)
(-0.0819782 -0.147649 0)
(-0.0982843 -0.217456 0)
(0.0631449 -0.287874 0)
(0.0459849 -0.218191 0)
(0.297894 -0.0797382 0)
(0.197237 -0.192252 0)
(0.284516 -0.0984889 0)
(0.316502 -0.0360725 0)
(0.261339 0.0973843 0)
(-0.000406516 -0.176831 0)
(-0.0512949 -0.182474 0)
(-0.0923754 -0.194289 0)
(-0.0536345 -0.170219 0)
(-0.0983279 -0.218032 0)
(-0.0997571 -0.19392 0)
(-0.0527817 -0.222245 0)
(-0.101599 -0.11837 0)
(-0.14675 -0.0941965 0)
(-0.137968 -0.0182894 0)
(-0.179692 -0.114865 0)
(-0.123023 -0.0755546 0)
(-0.0457143 -0.140694 0)
(-0.0675497 0.0596424 0)
(-0.00939775 -0.032525 0)
(0.0468729 -0.0512339 0)
(0.0176481 -0.171589 0)
(0.0505453 -0.170309 0)
(0.2716 -0.0760233 0)
(0.259567 -0.0946421 0)
(0.049965 -0.237111 0)
(0.158377 -0.0954806 0)
(0.0848057 -0.0368669 0)
(-0.0491866 -0.151746 0)
(-0.065196 -0.168999 0)
(-0.0643604 -0.200587 0)
(-0.0545849 -0.156475 0)
(-0.0956954 -0.216061 0)
(-0.0755116 -0.208899 0)
(-0.0694858 -0.187171 0)
(-0.0962244 -0.101828 0)
(-0.0787254 -0.0747977 0)
(-0.153037 -0.0820716 0)
(-0.196595 -0.145343 0)
(-0.132686 -0.041973 0)
(-0.11622 -0.214548 0)
(-0.115233 -0.102773 0)
(-0.0865809 -0.229271 0)
(-0.0689151 -0.200907 0)
(-0.00497668 -0.302055 0)
(-0.0500476 -0.313156 0)
(0.0667783 -0.189755 0)
(0.0756946 0.0100232 0)
(-0.0196176 -0.161279 0)
(-0.107852 -0.0722286 0)
(-0.252996 -0.141893 0)
(-0.0487736 -0.112984 0)
(-0.0486626 -0.113604 0)
(-0.0470397 -0.19573 0)
(-0.0203317 -0.137819 0)
(-0.0732328 -0.184202 0)
(-0.0417224 -0.214366 0)
(-0.0863439 -0.197117 0)
(-0.0751886 -0.0965416 0)
(-0.0534679 -0.0503242 0)
(-0.0788921 -0.0529436 0)
(-0.108377 -0.136194 0)
(-0.225179 -0.0519445 0)
(-0.195762 -0.12362 0)
(-0.127992 -0.109678 0)
(-0.102317 -0.194785 0)
(-0.143552 -0.150402 0)
(-0.204995 -0.218801 0)
(-0.193854 -0.224506 0)
(-0.297845 -0.123939 0)
(-0.428853 -0.0847009 0)
(-0.415709 -0.0077604 0)
(-0.266434 -0.0419216 0)
(-0.428657 -0.082051 0)
(-0.0588113 -0.108964 0)
(-0.0264772 -0.132052 0)
(-0.0282567 -0.237276 0)
(-0.0133976 -0.15193 0)
(-0.0571146 -0.187029 0)
(-0.0469787 -0.240542 0)
(-0.1264 -0.203009 0)
(-0.109562 -0.0867094 0)
(-0.0691963 -0.0441346 0)
(-0.195443 -0.168078 0)
(-0.173341 -0.108369 0)
(-0.120793 -0.109945 0)
(-0.157204 -0.0400671 0)
(-0.187321 -0.1576 0)
(-0.118477 -0.198879 0)
(-0.229532 -0.33851 0)
(-0.291305 -0.227873 0)
(-0.255762 -0.225233 0)
(-0.479393 -0.0932719 0)
(-0.410626 -0.167053 0)
(-0.227547 0.00500136 0)
(-0.342228 -0.138794 0)
(-0.534307 -0.0961602 0)
(-0.0724193 -0.0594722 0)
(-0.011004 -0.0884634 0)
(-0.0206604 -0.209283 0)
(0.00459032 -0.0689344 0)
(-0.0694332 -0.14366 0)
(-0.0499939 -0.19879 0)
(-0.123714 -0.166918 0)
(-0.0895106 -0.0177957 0)
(-0.203028 -0.0411376 0)
(-0.170083 -0.0995081 0)
(-0.0914463 -0.00157755 0)
(-0.167956 -0.0647123 0)
(-0.117992 0.00279971 0)
(-0.217014 -0.151778 0)
(-0.264661 -0.195321 0)
(-0.21199 -0.209787 0)
(-0.21677 -0.184799 0)
(-0.149201 -0.288864 0)
(-0.34086 -0.272622 0)
(-0.517495 -0.0399712 0)
(-0.296709 -0.120649 0)
(-0.254145 -0.07046 0)
(-0.192086 0.0219678 0)
(0.000316094 -0.0350728 0)
(0.0891681 -0.207127 0)
(-0.00432105 -0.270108 0)
(-0.0887053 -0.139025 0)
(-0.0940534 -0.186105 0)
(-0.11256 -0.179031 0)
(-0.158278 -0.123172 0)
(-0.149005 -0.140465 0)
(-0.236414 -0.0521449 0)
(-0.196654 -0.12036 0)
(-0.185784 -0.0563194 0)
(-0.113622 -0.0754142 0)
(-0.126699 0.0507149 0)
(-0.264844 -0.18471 0)
(-0.137892 -0.111864 0)
(-0.218123 -0.192577 0)
(-0.341338 -0.227248 0)
(-0.231169 -0.143316 0)
(-0.207017 -0.333377 0)
(-0.246019 -0.108752 0)
(-0.166504 -0.0790041 0)
(-0.228538 0.0162436 0)
(-0.207552 0.0409541 0)
(-0.0470091 -0.141954 0)
(0.00289262 -0.324619 0)
(-0.0400841 -0.307784 0)
(-0.0520334 -0.214494 0)
(-0.00278498 -0.247501 0)
(-0.0576212 -0.229455 0)
(-0.22226 -0.20192 0)
(-0.138814 -0.163275 0)
(-0.187515 -0.127209 0)
(-0.187417 -0.11936 0)
(-0.0976339 -0.094923 0)
(-0.10925 -0.0573023 0)
(-0.160599 -0.0786245 0)
(-0.155853 -0.100461 0)
(-0.0788974 0.0108653 0)
(-0.241904 -0.250242 0)
(-0.15172 -0.133516 0)
(-0.212571 -0.0971624 0)
(-0.208667 -0.180664 0)
(-0.141454 -0.103294 0)
(-0.133025 -0.130267 0)
(-0.124388 -0.00641018 0)
(-0.100685 0.0175544 0)
(-0.0125573 -0.141516 0)
(0.00355838 -0.269091 0)
(-0.0210095 -0.220457 0)
(-0.0413571 -0.15444 0)
(-0.0679826 -0.166486 0)
(-0.120622 -0.21508 0)
(-0.127089 -0.174623 0)
(-0.0900782 -0.0325097 0)
(-0.15882 -0.141868 0)
(-0.1415 -0.0909859 0)
(-0.144325 -0.108074 0)
(-0.129377 -0.0406845 0)
(-0.155963 -0.0576206 0)
(-0.126679 -0.12061 0)
(-0.189886 -0.211826 0)
(-0.174023 -0.148464 0)
(-0.150615 -0.130509 0)
(-0.222816 -0.122413 0)
(-0.0717428 -0.106071 0)
(-0.090317 -0.171358 0)
(-0.0429016 -0.0973914 0)
(-0.0526926 -0.0156007 0)
(-0.0158422 0.00411724 0)
(0.012172 -0.119438 0)
(0.0252015 -0.300879 0)
(-0.0274995 -0.235291 0)
(-0.0184492 -0.194267 0)
(-0.0406976 -0.184607 0)
(-0.0647945 -0.143781 0)
(-0.139754 -0.0755332 0)
(-0.107657 -0.067532 0)
(-0.205295 -0.0499372 0)
(-0.116116 -0.126604 0)
(-0.0946383 -0.126577 0)
(-0.0860729 0.0100402 0)
(-0.18904 -0.0854715 0)
(-0.221933 -0.0615307 0)
(-0.0643702 -0.189365 0)
(-0.0705083 -0.0504822 0)
(-0.111021 -0.22509 0)
(-0.105552 -0.15792 0)
(-0.0637789 -0.182606 0)
(-0.0550886 -0.179179 0)
(-0.00181484 -0.118842 0)
(-0.0163293 -0.0529483 0)
(-0.016318 0.0209121 0)
(-0.07847 -0.047707 0)
(-0.0385278 -0.181194 0)
(0.00626785 -0.127666 0)
(0.0143834 -0.140654 0)
(-0.0209747 -0.168078 0)
(-0.0286916 -0.126761 0)
(-0.110213 -0.11781 0)
(-0.0488194 0.0149876 0)
(-0.101716 -0.110256 0)
(-0.150296 -0.0549112 0)
(-0.0673378 -0.100626 0)
(-0.102018 0.00772454 0)
(-0.131657 -0.0550121 0)
(-0.0732865 -0.00537611 0)
(-0.103733 -0.165194 0)
(-0.138187 -0.239649 0)
(-0.172476 -0.23887 0)
(-0.0292031 -0.19434 0)
(-0.0113698 -0.204547 0)
(0.00626287 -0.177669 0)
(0.025272 -0.135032 0)
(0.0519956 -0.0714279 0)
(0.0314304 -0.00301864 0)
(-0.070878 -0.0102459 0)
(-0.022427 -0.147911 0)
(-0.0552156 -0.117126 0)
(-0.0786469 -0.129931 0)
(-0.0320402 -0.108146 0)
(-0.0313404 -0.0939308 0)
(-0.0538732 -0.0556087 0)
(-0.0658453 0.0320368 0)
(-0.109365 -0.0862859 0)
(-0.028044 -0.146081 0)
(-0.134007 -0.0495048 0)
(-0.0529268 -0.0158083 0)
(-0.126789 -0.0069926 0)
(-0.186423 -0.0863561 0)
(-0.104126 -0.132552 0)
(-0.0764908 -0.173545 0)
(-0.0252672 -0.143855 0)
(0.0043323 -0.16962 0)
(-0.00435288 -0.204087 0)
(0.0282214 -0.198587 0)
(0.0336853 -0.146418 0)
(0.0296427 -0.0394098 0)
(0.0379978 0.0474224 0)
(-0.0221358 0.00561717 0)
(-0.0113828 -0.149974 0)
(-0.0506827 -0.127406 0)
(-0.00663202 -0.0608523 0)
(-0.0298065 -0.101764 0)
(-0.0215305 -0.0231304 0)
(-0.0349121 -0.0615484 0)
(-0.0331148 -0.00235473 0)
(-0.0747476 -0.0291823 0)
(-0.0618661 -0.168252 0)
(-0.0220117 -0.0509865 0)
(-0.0882728 0.0680755 0)
(-0.119577 -0.0652255 0)
(-0.0222154 -0.0481921 0)
(-0.0594729 -0.132502 0)
(-0.0504212 -0.122101 0)
(-0.0354308 -0.146257 0)
(-0.0121863 -0.204902 0)
(0.00382906 -0.228171 0)
(0.0357481 -0.212893 0)
(0.0366995 -0.140355 0)
(0.0161348 -0.0335078 0)
(0.0170497 0.0128109 0)
(-0.0581654 0.0220284 0)
(-0.0230998 -0.152173 0)
(-0.0641458 -0.0951918 0)
(-0.030684 -0.0551006 0)
(-0.0413912 -0.0959956 0)
(-0.0239663 -0.0282934 0)
(-0.0594177 -0.0272461 0)
(0.00154157 0.0572051 0)
(-0.0790693 -0.0544953 0)
(-0.0163432 -0.123697 0)
(0.0149992 -0.0082987 0)
(-0.0147258 0.0282223 0)
(-0.0637907 0.0571367 0)
(-0.0129174 -0.072025 0)
(-0.0295631 -0.154357 0)
(-0.0159907 -0.139283 0)
(-0.00296809 -0.173452 0)
(0.021127 -0.206449 0)
(0.0165414 -0.233014 0)
(0.0310836 -0.212797 0)
(0.019902 -0.140092 0)
(-0.0117316 -0.031497 0)
(0.0514629 0.0150731 0)
(-0.017944 0.101831 0)
(0.000804557 -0.14097 0)
(-0.0249597 -0.0740638 0)
(0.00888553 -0.116221 0)
(-0.058772 -0.0735233 0)
(0.00938835 -0.0413257 0)
(-0.0488954 0.00062987 0)
(0.0671354 0.00531051 0)
(0.0264332 0.0206083 0)
(-0.00419645 -0.109077 0)
(-0.00980013 -0.0187684 0)
(-0.0225914 0.0727926 0)
(0.000818933 0.00802091 0)
(0.0394135 -0.0878502 0)
(0.0045058 -0.131727 0)
(0.00817723 -0.156582 0)
(0.00528177 -0.17976 0)
(0.020107 -0.216975 0)
(0.0256229 -0.230521 0)
(0.0283452 -0.222503 0)
(0.0286416 -0.10932 0)
(0.0037724 -0.0527929 0)
(0.0393052 -0.0216402 0)
(0.0844383 -0.00990377 0)
(0.0387964 -0.145227 0)
(-0.0421295 -0.113334 0)
(-0.0246805 -0.151264 0)
(-0.0539965 -0.117125 0)
(-0.06598 -0.0912188 0)
(-0.0581326 -0.0696097 0)
(-0.0161942 -0.0236075 0)
(-0.00572469 -0.0192994 0)
(0.0122756 -0.0997107 0)
(0.00189689 -0.00652649 0)
(-0.0363802 0.111141 0)
(0.014986 -0.0379793 0)
(0.0428946 -0.0644677 0)
(0.01653 -0.126091 0)
(0.0287338 -0.124655 0)
(0.0509856 -0.18628 0)
(0.0633808 -0.216484 0)
(0.0534286 -0.258291 0)
(0.0412326 -0.162229 0)
(0.0248305 -0.145776 0)
(0.0117377 -0.0496269 0)
(0.0804673 -0.0485858 0)
(0.0120636 -0.0777195 0)
(0.0112899 -0.16905 0)
(0.00542149 -0.148386 0)
(0.00668814 -0.154005 0)
(-0.0110421 -0.126332 0)
(-0.00292444 -0.132248 0)
(0.00329208 -0.0768874 0)
(0.0260936 -0.076349 0)
(0.0669575 -0.0574471 0)
(0.0211469 -0.101104 0)
(-0.034378 -0.00195701 0)
(0.0420247 0.00344337 0)
(0.102211 -0.0713422 0)
(0.0801501 -0.0672854 0)
(0.0660225 -0.125565 0)
(0.0851815 -0.190222 0)
(0.0404234 -0.203197 0)
(0.0524446 -0.22248 0)
(0.0831548 -0.260903 0)
(0.0222609 -0.240971 0)
(-0.0200466 -0.214364 0)
(0.0294513 -0.151414 0)
(-0.0299486 -0.0484075 0)
(0.00370093 -0.0530331 0)
(0.00209737 -0.118471 0)
(-0.00791542 -0.117848 0)
(-0.0046298 -0.122372 0)
(-0.0127721 -0.108209 0)
(-0.00885269 -0.110011 0)
(-0.011364 -0.094243 0)
(-0.00494394 -0.0901263 0)
(0.0179664 -0.0952587 0)
(0.000660791 -0.114994 0)
(0.027707 -0.0473454 0)
(0.0133105 -0.0683556 0)
(0.0716817 -0.0589522 0)
(0.0583708 -0.106382 0)
(0.04306 -0.137291 0)
(0.0738757 -0.23342 0)
(0.104661 -0.211178 0)
(0.0827823 -0.251434 0)
(0.0341459 -0.244298 0)
(0.0488684 -0.267891 0)
(0.0844955 -0.199451 0)
(0.0715559 -0.196769 0)
(0.111353 -0.102492 0)
(0.00169147 -0.0891933 0)
(0.00833196 -0.141283 0)
(0.00635468 -0.138765 0)
(0.0124836 -0.136871 0)
(0.00967579 -0.125086 0)
(0.0137882 -0.126235 0)
(0.0183019 -0.107348 0)
(0.0217406 -0.102309 0)
(0.0337908 -0.0864982 0)
(0.0265884 -0.0858285 0)
(0.0346281 -0.0589986 0)
(0.0453557 -0.0709692 0)
(0.0548501 -0.0436708 0)
(0.0578722 -0.0960838 0)
(0.0664366 -0.156322 0)
(0.0810378 -0.127005 0)
(0.117497 -0.216931 0)
(0.104927 -0.235205 0)
(0.0699978 -0.233546 0)
(0.0590859 -0.236297 0)
(0.0721469 -0.224368 0)
(0.117831 -0.191271 0)
(0.13747 -0.107668 0)
(-0.000621529 -0.0749294 0)
(0.00534651 -0.129752 0)
(0.0018967 -0.127895 0)
(0.00741966 -0.129834 0)
(0.0073163 -0.11154 0)
(0.0111835 -0.127121 0)
(0.0145612 -0.11119 0)
(0.0191644 -0.119254 0)
(0.0259991 -0.106286 0)
(0.0283438 -0.114039 0)
(0.0398466 -0.0881656 0)
(0.0396541 -0.104299 0)
(0.0592999 -0.0863411 0)
(0.0476434 -0.116287 0)
(0.0860141 -0.152667 0)
(0.089531 -0.151938 0)
(0.132432 -0.20781 0)
(0.130338 -0.230177 0)
(0.0282319 -0.221643 0)
(0.0847901 -0.228819 0)
(0.149299 -0.275823 0)
(0.182735 -0.243402 0)
(0.188103 -0.140935 0)
(-0.00264475 -0.097284 0)
(0.0113497 -0.142454 0)
(0.0105032 -0.144003 0)
(0.0259291 -0.142673 0)
(0.0221321 -0.137672 0)
(0.0212113 -0.136588 0)
(0.028485 -0.127157 0)
(0.033355 -0.12218 0)
(0.0374059 -0.108485 0)
(0.0438444 -0.109361 0)
(0.0467502 -0.0879727 0)
(0.0572576 -0.102191 0)
(0.0607815 -0.0720249 0)
(0.0628312 -0.115328 0)
(0.0837076 -0.123625 0)
(0.155828 -0.158992 0)
(0.168411 -0.266155 0)
(0.13151 -0.25515 0)
(0.0598884 -0.192205 0)
(0.0868439 -0.286607 0)
(0.129317 -0.307219 0)
(0.245293 -0.243716 0)
(0.206913 -0.130492 0)
(8.8096e-05 -0.0937778 0)
(0.0108976 -0.13629 0)
(0.00886843 -0.143489 0)
(0.0194332 -0.142959 0)
(0.0174244 -0.148591 0)
(0.0274041 -0.14182 0)
(0.0251336 -0.135008 0)
(0.0352675 -0.13708 0)
(0.0360211 -0.127615 0)
(0.0479907 -0.130776 0)
(0.0490637 -0.115867 0)
(0.06338 -0.128421 0)
(0.0653194 -0.101242 0)
(0.0773453 -0.132702 0)
(0.0943514 -0.1292 0)
(0.0861991 -0.200535 0)
(0.159342 -0.283843 0)
(0.19313 -0.265088 0)
(0.0216 -0.184035 0)
(0.0950971 -0.307023 0)
(0.201634 -0.242048 0)
(0.255284 -0.310462 0)
(0.214683 -0.137463 0)
(0.000742699 -0.118546 0)
(0.0143358 -0.15888 0)
(0.014046 -0.161006 0)
(0.0254611 -0.159121 0)
(0.0249281 -0.154375 0)
(0.034374 -0.151109 0)
(0.0361679 -0.143514 0)
(0.0472267 -0.142709 0)
(0.0463543 -0.134549 0)
(0.0595925 -0.134094 0)
(0.0525808 -0.120984 0)
(0.0730285 -0.133317 0)
(0.0590113 -0.10449 0)
(0.0853891 -0.144594 0)
(0.0738127 -0.140702 0)
(0.131076 -0.21125 0)
(0.185526 -0.186778 0)
(0.189341 -0.27119 0)
(0.0673697 -0.297678 0)
(0.138302 -0.240523 0)
(0.14952 -0.205267 0)
(0.232151 -0.227863 0)
(0.374757 -0.164571 0)
(0.00186526 -0.125057 0)
(0.0125514 -0.163811 0)
(0.0124665 -0.166819 0)
(0.0225157 -0.165716 0)
(0.0224944 -0.166611 0)
(0.0335177 -0.165337 0)
(0.0329912 -0.160054 0)
(0.0454189 -0.157979 0)
(0.0427387 -0.151425 0)
(0.0584426 -0.144111 0)
(0.0471501 -0.140918 0)
(0.0733792 -0.141859 0)
(0.0435646 -0.122729 0)
(0.0901048 -0.14879 0)
(0.129164 -0.164865 0)
(0.152223 -0.160616 0)
(0.119333 -0.244098 0)
(0.100413 -0.333085 0)
(0.131033 -0.268713 0)
(0.209051 -0.251917 0)
(0.201053 -0.232761 0)
(0.229069 -0.239431 0)
(0.285985 -0.223586 0)
(0.00137442 -0.146868 0)
(0.0148372 -0.179811 0)
(0.0133835 -0.180171 0)
(0.025158 -0.179071 0)
(0.0245808 -0.175253 0)
(0.0361981 -0.172089 0)
(0.0347686 -0.165635 0)
(0.0472609 -0.163062 0)
(0.0446277 -0.158127 0)
(0.0604134 -0.145007 0)
(0.052176 -0.146902 0)
(0.0762591 -0.130255 0)
(0.0509129 -0.131811 0)
(0.105413 -0.123594 0)
(0.15892 -0.17175 0)
(0.149831 -0.222356 0)
(0.0980061 -0.284404 0)
(0.173428 -0.290899 0)
(0.230999 -0.212073 0)
(0.20206 -0.288296 0)
(0.133233 -0.218746 0)
(0.22121 -0.295716 0)
(0.378694 -0.242153 0)
(0.00186975 -0.158601 0)
(0.0123588 -0.188521 0)
(0.0122576 -0.18835 0)
(0.0226424 -0.189236 0)
(0.0227966 -0.189041 0)
(0.033942 -0.187566 0)
(0.0351675 -0.181768 0)
(0.0474304 -0.180399 0)
(0.0470216 -0.175543 0)
(0.0615475 -0.164114 0)
(0.0629274 -0.166171 0)
(0.0800974 -0.149849 0)
(0.0794084 -0.165618 0)
(0.109526 -0.135947 0)
(0.110596 -0.181446 0)
(0.115583 -0.243221 0)
(0.116715 -0.230667 0)
(0.188765 -0.237738 0)
(0.212916 -0.257113 0)
(0.255451 -0.367342 0)
(0.149206 -0.240476 0)
(0.186551 -0.181471 0)
(0.29528 -0.273997 0)
(0.000830765 -0.174352 0)
(0.0129379 -0.199667 0)
(0.0110781 -0.199413 0)
(0.0229791 -0.199669 0)
(0.0217407 -0.196011 0)
(0.0334847 -0.197189 0)
(0.032763 -0.189968 0)
(0.0440093 -0.188202 0)
(0.0438517 -0.182707 0)
(0.0510331 -0.179942 0)
(0.0596631 -0.176668 0)
(0.0553917 -0.170651 0)
(0.0831829 -0.177017 0)
(0.131838 -0.162173 0)
(0.117823 -0.173149 0)
(0.17722 -0.236942 0)
(0.12763 -0.251786 0)
(0.149585 -0.278322 0)
(0.130708 -0.372239 0)
(0.231484 -0.408886 0)
(0.235583 -0.338267 0)
(0.139187 -0.213692 0)
(0.253561 -0.273078 0)
(0.00113275 -0.187963 0)
(0.0108196 -0.210137 0)
(0.00921039 -0.210089 0)
(0.0199812 -0.211755 0)
(0.018286 -0.210587 0)
(0.0305385 -0.211501 0)
(0.0293388 -0.20255 0)
(0.0444721 -0.205291 0)
(0.0434681 -0.187908 0)
(0.0565162 -0.198727 0)
(0.0590117 -0.169145 0)
(0.0646307 -0.200988 0)
(0.0855995 -0.102476 0)
(0.15629 -0.146217 0)
(0.100669 -0.212047 0)
(0.110434 -0.239714 0)
(0.0987491 -0.309451 0)
(0.120448 -0.25663 0)
(0.152797 -0.317249 0)
(0.247199 -0.181153 0)
(0.246026 -0.297706 0)
(0.232308 -0.304573 0)
(0.310286 -0.285007 0)
(4.48475e-05 -0.195816 0)
(0.0120523 -0.213447 0)
(0.0088339 -0.215221 0)
(0.0217357 -0.215677 0)
(0.0173877 -0.214774 0)
(0.0318405 -0.217908 0)
(0.0269028 -0.215426 0)
(0.0465621 -0.215166 0)
(0.0387359 -0.205538 0)
(0.0679652 -0.207639 0)
(0.0506548 -0.197148 0)
(0.0936248 -0.218163 0)
(0.165206 -0.133216 0)
(0.114835 -0.183649 0)
(0.0988042 -0.236256 0)
(0.109206 -0.266057 0)
(0.124677 -0.248569 0)
(0.168614 -0.239285 0)
(0.213714 -0.285302 0)
(0.245186 -0.235198 0)
(0.133944 -0.357761 0)
(0.196177 -0.269394 0)
(0.250219 -0.419101 0)
(-0.000325497 -0.214669 0)
(0.0107581 -0.230221 0)
(0.00769226 -0.231393 0)
(0.0194723 -0.231576 0)
(0.0150208 -0.232066 0)
(0.0296162 -0.233164 0)
(0.0219109 -0.232521 0)
(0.0407672 -0.232205 0)
(0.0319425 -0.227591 0)
(0.0561611 -0.229395 0)
(0.0390697 -0.206336 0)
(0.0727096 -0.182347 0)
(0.123624 -0.101762 0)
(0.118547 -0.202154 0)
(0.0847786 -0.207737 0)
(0.113593 -0.234705 0)
(0.12879 -0.233165 0)
(0.138012 -0.274251 0)
(0.134835 -0.345718 0)
(0.0656287 -0.417838 0)
(0.201086 -0.403335 0)
(0.156377 -0.34208 0)
(0.2155 -0.460863 0)
(-8.21635e-06 -0.210255 0)
(0.0106519 -0.223371 0)
(0.00738737 -0.225967 0)
(0.0195801 -0.224905 0)
(0.0140946 -0.228331 0)
(0.030599 -0.227701 0)
(0.0193378 -0.232155 0)
(0.0450714 -0.232355 0)
(0.0222656 -0.233381 0)
(0.0687168 -0.217135 0)
(0.0953482 -0.225612 0)
(0.145966 -0.20784 0)
(0.172309 -0.188568 0)
(0.100933 -0.285892 0)
(0.0876853 -0.223644 0)
(0.0826655 -0.223676 0)
(0.0926227 -0.25202 0)
(0.108871 -0.260598 0)
(0.0980877 -0.347234 0)
(0.118002 -0.36351 0)
(0.228608 -0.288449 0)
(0.126191 -0.407774 0)
(0.167322 -0.329077 0)
(6.6455e-05 -0.244686 0)
(0.00834365 -0.254167 0)
(0.00524645 -0.257279 0)
(0.0148668 -0.254626 0)
(0.00928096 -0.260559 0)
(0.0229939 -0.254 0)
(0.0101876 -0.264969 0)
(0.0340537 -0.248544 0)
(0.0381897 -0.268139 0)
(0.0578728 -0.233533 0)
(0.0515869 -0.276014 0)
(0.104207 -0.262909 0)
(0.0693931 -0.303884 0)
(0.0891436 -0.319298 0)