/*--------------------------------*- C++ -*----------------------------------*\
| =========                 |                                                 |
| \\      /  F ield         | foam-extend: Open Source CFD                    |
|  \\    /   O peration     | Version:     4.1                                |
|   \\  /    A nd           | Web:         http://www.foam-extend.org         |
|    \\/     M anipulation  |                                                 |
\*---------------------------------------------------------------------------*/
FoamFile
{
    version     2.0;
    format      ascii;
    class       volScalarField;
    location    "0.65";
    object      pd;
}
// * * * * * * * * * * * * * * * * * * * * * * * * * * * * * * * * * * * * * //

dimensions      [1 -1 -2 0 0 0 0];

internalField   nonuniform List<scalar> 
2268
(
477.169
490.663
505.626
522.008
560.582
590.438
635.646
675.372
699.056
723.849
728.694
747.557
755.624
769.238
778.044
788.091
796.968
802.037
810.817
814.613
821.581
824.13
826.466
476.084
486.699
503.318
523.702
559.012
592.935
636.197
674.635
699.683
723.986
725.916
750.608
755.491
765.705
781.427
787.274
797.892
801.547
810.918
814.323
821.783
824.733
827.633
473.875
484.475
503.218
526.261
559.088
585.855
638.619
678.837
704.548
717.842
732.017
749.447
750.635
773.048
774.515
789.749
798.403
802.7
811.344
815.736
822.56
824.564
826.429
470.937
477.766
496.59
523.108
554.284
595.156
638.683
689.681
692.795
728.214
728.949
750.717
755.347
768.623
781.568
787.421
798.047
801.546
813.549
814.233
823.121
826.316
830.084
464.85
473.325
490.429
527.968
548.824
593.979
647.845
675.414
704.011
737.071
732.516
751.126
752.859
770.463
778.237
784.749
801.386
805.184
811.07
818.249
825.562
827.365
827.388
457.183
466.369
482.163
521.619
546.918
595.665
648.245
698.974
710.447
732.998
734.015
749.971
757.282
766.38
781.344
786.491
797.163
800.648
815.161
814.944
825.957
827.929
834.27
410.244
428.541
451.53
501.447
545.753
598.297
671.17
683.255
708.362
731.257
734.957
750.143
756.052
766.09
774.868
774.396
801.041
802.078
819.647
826.451
830.003
836.159
829.885
212.401
248.702
295.978
406.85
509.89
588.993
650.868
730.948
718.966
737.663
737.962
750.122
758.433
764.377
787.891
771.241
818.741
795.108
823.866
808.013
830.355
829.455
838.142
1890.27
1073.8
708.676
791.667
865.111
1004.66
826.912
765.198
735.462
656.284
531.88
797.655
901.703
998.44
978.532
984.612
1213.36
1260.92
1331.42
1635.39
915.889
657.936
737.16
877.231
1018.4
885.881
722.705
684.448
677.935
474.098
828.826
954.371
818.509
1015.31
945.645
1140.95
1262.88
1349.64
1128.88
858.809
494.429
680.069
871.193
1040.6
831.357
695.049
729.141
613.798
304.729
854.946
828.154
719.591
1033.65
997.018
1167.63
1213.23
1336.32
1091.83
622.339
267.067
727.447
896.096
1024.31
869.89
686.878
485.686
480.818
326.273
568.017
734.72
753.172
1066.73
1022.61
1084.21
1191.23
1336.63
892.33
402.133
322.32
544.372
875.979
995.699
892.833
647.686
478.012
423.896
407.643
775.111
758.143
777.774
1101.97
956.424
971.043
1086.8
1225.3
810.123
222.989
249.53
371.833
845.582
1052.25
920.238
769.737
532.573
557.987
561.656
813.275
948.153
791.117
1031.99
798.163
766.731
861.577
1134.48
730.328
193.183
235.542
274.6
763.667
920.174
903.642
865.598
730.462
768.212
623.642
858.632
890.069
719.922
873.77
613.051
596.262
648.928
1030.76
657.421
168.293
218.099
255.249
775.697
896.624
872.584
880.195
823.086
872.02
714.17
852.854
956.735
769.674
875.622
549.2
587.722
620.956
859.285
39.5231
49.8088
71.6392
124.706
266.15
515.718
657.166
692.545
712.028
729.79
736.588
747.165
756.97
759.807
788.028
744.593
822.442
802.898
835.872
838.094
838.052
864.418
833.377
6.0737
6.55519
7.82159
14.8495
59.3056
276.226
518.452
652.288
667.892
675.624
679.516
690.683
700.067
726.748
717.801
738.396
804.33
771.986
818.09
811.272
845.477
796.987
797.453
5.06583
5.16761
4.98961
6.31906
18.0645
54.417
146.759
252.283
235.959
223.161
217.951
242.858
274.563
314.972
338.485
417.331
547.946
579.94
641.732
700.386
748.966
840.39
775.41
5.05277
5.24839
4.93611
7.08363
15.4407
24.067
22.6127
20.0544
9.39172
7.63226
10.8829
14.448
23.4396
23.3873
22.74
44.1176
68.6108
107.663
118.932
168.648
267.311
441.124
683.617
4.52079
4.4994
4.1943
4.66004
6.45788
5.77367
4.7228
4.45628
4.40422
4.16171
4.87072
5.17825
5.92997
6.33565
7.19562
7.12201
12.288
12.3095
8.99404
8.18379
5.43161
27.1956
217.96
4.46931
4.3471
4.40812
3.87285
3.97329
4.22627
3.97944
4.08389
4.19909
4.18778
4.22373
4.27045
4.3633
4.72847
3.69499
4.96244
4.6784
4.50602
3.12567
2.45274
0.119043
1.88287
7.78326
4.18863
4.00798
4.11779
4.14788
4.0138
3.95427
3.93304
4.28887
4.10429
4.22852
4.26023
4.32446
4.19602
4.37435
3.93337
4.05849
3.7049
3.66272
2.42021
1.72369
0.13309
-1.96507
-2.86722
4.11045
4.18993
4.07328
3.98478
3.93392
3.98882
4.01375
3.9993
4.00481
4.38084
4.23516
4.36216
4.17817
4.0038
4.1306
4.19832
4.1749
3.12909
3.5167
1.6077
-0.869345
-2.51435
-4.94589
3.95708
3.94549
3.9389
4.00278
3.90438
4.03963
4.02562
4.05899
4.09215
4.11668
4.0915
4.42147
3.66066
3.63259
4.72427
4.55709
4.18345
3.96352
3.88645
0.345793
2.1409
-1.21942
-8.02479
3.85644
3.84299
3.82473
3.84053
3.79941
3.82187
3.92249
3.78675
3.96481
3.7056
4.24024
4.55742
4.40363
3.86213
4.1297
5.08045
4.0691
3.72054
3.06657
1.92662
2.86862
1.67824
-0.948885
3.7274
3.71517
3.75483
3.92418
3.79484
3.77997
3.93344
4.03622
3.69497
4.04868
3.86898
3.81806
3.84269
3.83631
4.42351
4.21446
3.98498
1.43071
1.73047
0.671259
4.22714
2.42958
2.13064
3.59465
3.55594
3.57613
3.47182
3.5993
3.62981
3.58065
3.69029
3.68681
3.90566
3.44345
4.01714
3.62682
3.51971
4.19857
4.04789
4.07054
2.67636
1.7551
1.63962
-0.420809
2.71214
4.95506
3.46405
3.47127
3.48516
3.47656
3.55034
3.52898
3.60104
3.59492
3.6075
3.93735
3.64647
4.20734
3.51482
3.89614
4.13881
3.7434
3.43776
2.46319
2.98338
2.38138
5.98294
30.5839
46.3288
3.33439
3.30549
3.36775
3.31048
3.32334
3.33905
3.30022
3.239
2.91829
3.17838
3.17049
3.15286
3.11593
3.31462
2.38628
2.69185
2.85205
2.10153
2.43418
0.701211
16.4313
79.2771
68.2699
3.16766
3.1134
3.23637
2.89422
3.50161
3.30485
3.30958
3.35991
3.39928
3.12132
2.97321
3.02378
3.3313
3.222
2.69207
3.2083
2.93739
2.7492
1.95653
15.6465
39.4988
50.1015
12.6699
3.06276
3.06087
3.22236
3.2639
2.50867
3.00836
2.93249
3.16305
3.03408
3.26036
3.24702
3.17158
3.40817
3.18376
3.0731
3.06954
2.57122
2.93037
2.54432
5.21548
10.0336
11.797
4.70135
2.80716
2.8027
2.58405
2.85114
3.26826
3.01282
2.95723
2.72388
2.70745
2.79373
3.11612
1.84603
1.89872
2.17058
2.77059
1.68365
2.29242
3.88417
2.49821
2.89418
3.12997
3.0177
2.3641
2.6473
2.78116
2.35042
3.01722
2.51586
2.71159
2.98083
2.79519
2.56066
2.45389
2.20947
2.71718
2.79217
2.06428
1.72011
1.94494
2.55658
4.22495
12.1044
35.0876
43.6348
15.8948
4.97863
2.52202
2.50294
2.55733
1.78708
1.80167
2.74013
1.77485
2.45904
2.22986
2.46887
1.26079
2.87353
1.09881
2.0516
2.25647
2.75606
2.66654
31.3026
141.671
182.53
160.667
18.0301
-1.63432
2.42711
2.45937
2.44067
2.69039
2.43527
2.03048
1.78014
2.20567
2.06885
2.15623
2.34265
1.69389
2.24999
1.90394
0.96552
0.322114
-1.64638
11.4666
77.2085
66.2051
44.162
-1.02947
-7.15776
2.2969
2.30934
2.26941
2.26733
2.20828
2.2058
2.52887
2.19834
2.00536
1.88365
1.72276
1.6831
1.46906
1.1523
0.72619
-0.56144
-2.46987
0.020608
19.8676
33.9892
8.3357
-6.80004
-7.81965
2.1911
2.18867
2.15663
2.19299
2.10395
1.96175
1.98042
1.98981
1.8984
1.7049
1.49081
1.3685
1.16253
0.879822
0.33781
-0.957821
-2.60168
-5.30571
-4.32193
1.38776
9.67753
2.85591
-6.79536
2.03846
2.02088
2.00249
1.97658
1.92615
1.49675
1.79111
1.77971
1.68496
1.63402
1.27623
1.17011
0.903497
0.531189
0.136521
-1.27752
-2.40511
-4.21582
-5.93044
-5.0995
-2.91352
-0.647883
-1.7641
1.98878
1.95311
1.9286
1.91703
1.97684
2.18931
1.83029
2.12836
1.54743
1.407
1.03442
0.368664
0.706076
0.401263
-0.545205
-1.52886
-2.08672
-3.39369
-4.53688
-4.67498
-4.7508
-6.05095
-0.386503
1.76631
1.75231
1.74643
1.76874
1.68086
1.57453
1.48677
1.17058
1.08414
1.33697
1.21734
1.20039
0.962413
0.121098
-0.684743
-0.555585
-1.72591
-2.49351
-3.71369
-3.31219
-5.45916
-5.78458
-4.74819
2.03275
1.7661
1.71339
1.66839
1.92125
1.56209
1.55078
1.4371
1.18163
1.17318
1.20206
0.760131
0.429116
0.0346075
0.151084
-0.644563
-1.59478
-1.57187
-3.81783
-3.92155
-4.2138
-5.42401
-5.78809
1.04371
1.37597
1.43323
1.75527
1.13292
1.27651
1.44342
0.593966
1.09345
0.842446
0.557794
0.821327
0.538879
-0.145411
-0.251952
-0.534916
-1.93032
-2.56675
-2.96385
-2.74189
-3.81924
-4.82943
-2.97559
0.804196
1.55185
1.08849
0.939622
0.705315
1.53463
0.972394
1.13638
1.05564
0.803133
0.407039
0.334925
-0.180491
-0.0979502
-1.54806
-1.23392
-1.80804
-1.88389
-2.03217
-2.59458
-3.89346
-2.69958
-3.85358
1.45387
0.90657
1.24367
1.16341
1.36546
0.842906
0.905856
1.09223
0.979006
0.549786
0.0767114
0.114231
0.106003
-0.784122
-0.789025
-0.695422
-1.15659
-1.38614
-1.66974
-1.77114
-2.20593
-0.985
-3.54691
1.05213
0.959664
1.14888
0.883245
1.32229
0.889827
0.989146
1.00342
0.389032
0.716894
0.558129
-0.239129
-0.0746074
-0.0111279
-0.0988866
-0.730514
-0.514065
-0.881172
-1.5093
-1.1012
-1.39152
-1.1071
-3.59837
1.00808
0.857356
1.19271
0.705046
0.573969
0.589644
0.521916
0.339033
0.396777
0.348364
0.185245
0.49396
0.329955
-0.135579
-0.0790237
-0.121534
-0.239029
-1.48002
-0.524355
-0.645397
-1.57528
-1.49888
-1.63567
0.777843
0.630724
0.493726
0.627926
0.58784
0.624131
0.567244
0.552846
0.44356
0.484102
0.0858771
0.600944
0.442695
-0.342706
0.213724
0.173313
-0.830762
-0.97665
-0.559266
-0.647316
-0.815552
-1.23033
-1.47817
0.780161
0.699818
0.706389
0.61691
0.653076
0.572696
0.547346
0.514405
0.437804
0.45595
0.449971
0.194832
0.0796947
0.22453
0.0807179
0.0329548
-0.399541
-0.317045
-0.182612
-0.382102
-0.606245
-0.77774
-1.04376
0.551216
0.494846
0.513879
0.47651
0.47065
0.450148
0.426498
0.418659
0.358631
0.358628
0.263671
0.325884
0.220172
0.380723
-0.0427714
0.0621772
-0.307096
-0.172263
-0.789839
0.0819459
-0.254738
-0.497601
-0.32394
0.919955
0.566966
0.589663
0.499249
0.486659
0.463188
0.44237
0.45692
0.456696
0.564234
0.251381
0.215204
0.153344
0.0402073
0.0559077
0.306509
-0.0136651
-0.102159
0.123297
0.0587469
0.0920134
-0.31684
-0.643615
0.0632891
0.184614
0.289362
0.292942
0.306494
0.291953
0.270658
0.237688
0.176962
0.073887
0.163929
0.149977
0.16117
0.128334
0.098434
-0.167496
0.0930292
0.0163691
-0.00409666
0.0283574
0.140893
-0.894216
-0.523593
0.302677
0.336356
0.326546
0.313252
0.303697
0.299739
0.282926
0.292629
0.28984
0.325147
0.317186
-0.0755502
0.267818
0.0342043
0.14079
0.228737
0.174594
0.146934
-0.0546294
-0.230278
-0.228102
-0.1927
-1.82695
0.173763
0.175787
0.183575
0.184653
0.184833
0.17557
0.171535
0.151483
0.142148
0.0880251
0.0904
0.275741
0.119782
0.229287
0.0937804
0.23835
0.0976258
0.192109
0.15654
-0.303833
0.218963
-0.367241
-1.52385
0.175823
0.174144
0.170721
0.158047
0.151107
0.132064
0.0990169
0.132339
0.109247
0.156236
0.188437
0.166438
0.227982
0.0288264
-0.0644455
0.250893
0.162649
0.0344196
0.0287702
0.266008
-0.319515
-0.0132297
-0.84818
0.0109377
0.0140373
0.0243329
0.0336884
0.0539636
0.0620998
0.107778
0.0812382
0.117127
0.0874071
0.08265
0.0935749
0.161591
0.213702
0.169481
0.333261
0.0356844
0.00582767
-0.0777912
-0.472672
-0.418654
-1.74725
-1.11773
0.128119
0.119249
0.116701
0.0730415
0.0818461
-0.0820969
-0.245093
-0.0233282
-0.274083
-0.0265699
-0.10292
-0.202345
-0.101254
-0.139596
-0.153023
-0.181912
-0.0213307
-0.217551
0.165886
0.124026
-0.113946
-0.892764
0.576393
-0.284901
-0.273867
-0.24898
-0.205069
-0.138083
-0.0245615
0.346242
-0.00547115
0.37121
0.0512286
0.0923173
0.292332
0.0727724
0.227763
0.202328
0.0223082
-0.0386712
-0.0429609
-0.862042
-0.827294
-1.40762
-0.584801
-1.1754
818.018
788.723
766.644
899.661
720.364
714.12
607.059
681.637
742.09
662.021
470.32
461.392
783.718
771.571
671.432
873.168
918.819
987.704
1162.6
1114.9
86.3635
460.639
880.907
1091.75
-2.56445
-0.882817
43.2835
393.254
-0.721581
16.6884
56.757
84.472
0.395395
11.241
19.5302
22.5341
0.55741
2.65268
6.52062
12.0371
4.44361
6.85587
12.6971
24.528
15.7536
13.0873
17.562
48.69
46.155
22.3415
12.5014
41.9569
33.7937
7.58087
6.63997
8.00613
4.04981
4.12194
4.35543
9.17044
2.98273
4.09133
25.3634
81.6106
3.63935
34.06
151.562
266.672
52.1869
162.785
171.562
149.918
0.509509
-1.82525
-4.5698
-5.34124
-7.25518
-7.05061
-6.88882
-7.10428
-7.54114
-7.70571
-7.82077
-8.00246
-7.61323
-8.56631
-9.09785
-9.21491
-9.26112
-9.8259
-10.3637
-11.1186
-5.53653
-9.19737
-9.07826
-5.55325
-3.24724
-5.55718
-8.11216
-7.97617
-5.00689
-4.93287
-7.26107
-8.74522
-5.69749
-6.27518
-7.07668
-7.03571
-4.56524
-4.64236
-4.73072
-4.76118
-4.49525
-5.18327
-5.75669
-3.5769
-3.38938
-3.28594
-3.47687
-3.2844
-3.41298
-3.27904
-3.1365
-2.90102
-1.93209
-1.87992
-1.9686
-2.12178
-1.4819
-1.50903
-1.50781
-1.64803
-2.05817
-1.97539
-1.97648
-2.00503
-1.04482
-1.12351
-1.05814
-1.25561
-0.46913
-0.723699
-0.921427
-1.09334
-0.773294
-0.506336
-0.877149
-1.1244
-2.04836
-0.975896
-0.99312
-1.11369
-1.82491
-1.18221
-0.901945
-1.0739
-0.340729
0.0167953
-0.540959
-0.224738
0.230247
-0.790433
-1.37358
-1.37473
0.00470129
-0.721238
-0.557751
-0.60521
644.194
226.972
257.247
334.939
575.424
783.938
766.129
887.233
857.065
821.407
632.738
651.547
877.744
821.042
764.949
543.479
574.789
663.635
648.227
606.965
-51.2611
612.612
596.447
421.782
313.609
555.92
748.042
690.273
542.698
422.178
352.862
484.189
788.725
749.224
470.626
579.866
728.105
555.364
452.943
1.70823
655.513
660.582
163.864
213.063
298.789
372.343
316.024
251.098
364.559
317.597
331.764
799.378
854.566
505.751
842.536
742.167
545.47
663.296
932.407
773.853
440.524
136.055
136.48
196.375
170.117
147.598
127.095
346.459
134.581
276.299
809.959
770.793
496.615
737.947
659.712
558.578
1336.98
933.857
514.787
129.92
120.973
129.044
142.066
128.215
115.837
121.385
114.514
70.0337
146.299
858.514
836.683
421.198
536.758
587.03
847.203
924.898
841.064
145.811
108.496
109.083
117.609
138.837
150.929
241.398
233.486
212.732
20.6026
291.495
955.074
841.812
483.98
214.387
487.116
859.762
511.977
263.825
102.252
97.8038
95.5006
96.5329
122.92
323.568
704.641
637.659
603.643
407.387
337.009
752.206
697.47
588.209
167.004
177.26
458.075
136.404
104.45
92.5532
93.3074
92.8207
91.9739
95.477
291.07
679.166
785.247
777.149
809.149
704.14
712.551
563.994
320.263
156.272
144.858
135.003
42.4243
79.7454
127.512
130.301
114.1
100.669
81.7655
87.7381
158.436
659.159
838.604
292.961
253.238
367.547
389.734
237.206
140.511
136.551
136.677
29.8315
48.4075
94.651
155.025
193.478
168.868
92.6343
71.9611
97.8647
298.476
807.31
298.128
197.079
179.983
203.924
339.466
169.776
143.413
132.194
76.0542
127.893
193.025
221.978
172.958
132.427
82.5717
68.6139
91.7106
286.015
374.168
539.998
457.545
246.481
317.397
335.163
158.539
264.053
154.561
142.954
226.318
247.189
177.155
73.699
62.3628
63.8109
65.9887
97.4501
251.084
180.368
324.172
250.284
192.857
172.559
200.466
191.082
345.386
181.492
100.335
214.974
105.619
59.0253
64.8262
61.7397
64.7143
83.9376
204.052
214.646
50.605
16.1053
15.5342
16.4538
11.8506
63.5824
284.07
216.672
114.787
8.74076
36.8134
124.985
174.498
204.493
133.074
141.753
226.381
330.289
209.212
29.1727
12.8337
8.05914
6.81616
6.59154
32.1761
135.555
78.9218
110.381
53.884
179.759
265.023
387.359
409.082
390.701
361.871
364.186
317.985
120.054
39.4384
20.2028
6.77238
5.87527
5.04389
5.14211
8.18501
36.8154
176.65
212.643
376.965
360.386
329.204
335.591
361.577
373.942
301.715
118.146
80.901
21.3771
16.4474
6.11009
4.67298
4.01948
3.52844
4.2823
50.7546
371.207
235.864
123.186
38.6254
20.2483
43.0152
19.5179
36.9015
24.3084
27.2899
45.8184
10.9261
4.78901
5.47826
4.32733
3.6754
3.54341
4.08022
24.9056
387.479
41.8261
-0.845861
-3.11694
-4.27874
-3.32209
-2.20999
-1.53055
2.96494
6.52941
12.0609
1.87308
1.0496
2.60277
2.42948
3.09773
2.95748
2.88949
6.29637
205.782
-5.32726
-4.66033
-5.99409
-4.78124
-3.62394
-2.7847
-2.22246
-0.565364
0.661231
4.48908
1.92649
1.05229
1.31686
1.93848
2.01394
2.15441
3.69035
10.0838
12.1865
-6.32893
-6.1616
-5.84776
-4.58648
-3.87669
-2.787
-2.27182
-1.69896
-1.18674
-1.15927
-0.763263
0.70159
0.420362
1.63909
1.9695
2.12023
5.07332
9.19587
1.6999
-7.78629
-8.96836
-7.65305
-5.30631
-2.53034
-1.11897
-3.31967
-1.817
-1.49725
-1.27127
0.566256
0.696203
0.382781
1.51611
1.53573
1.24337
5.90966
7.42561
0.835159
-9.73068
-10.5318
-6.32596
-5.42729
-3.52876
0.349429
2.01783
0.0131292
0.303143
0.38667
1.38649
0.472156
0.601858
1.31638
1.17145
1.08951
2.66662
1.24126
0.663806
-9.92608
-9.42333
-6.42882
-5.92105
-4.59857
1.18088
7.99346
15.8738
0.664669
0.125763
0.86791
-0.0309322
0.182067
0.938224
0.721369
1.07696
1.49145
0.730843
0.924688
-6.01837
-5.08208
-4.99608
-5.5044
-4.3588
-2.77302
12.7377
27.4191
0.881419
1.71166
0.525914
0.369154
-0.0579741
0.638353
0.215113
0.332017
-0.281841
0.330548
0.76348
-5.22588
-3.97959
-4.83286
-5.01953
-3.14324
-1.81907
1.14068
28.1394
4.65658
4.68516
0.0947063
-0.307274
-0.402669
0.215435
-0.325059
-0.0885183
1.24947
0.542732
1.09135
-4.5876
-3.39444
-5.99558
-4.84624
-2.8339
-1.47104
-1.52971
8.71378
11.8893
15.4529
1.65505
-0.357861
-0.0307807
0.174476
0.118677
1.38613
0.714421
0.684825
10.2939
-6.97131
-3.45108
-4.67267
-4.07211
-3.06724
-2.18155
-1.33791
-1.22737
14.8531
18.3109
10.0073
3.30308
2.50588
0.743497
0.346533
0.596335
0.766333
0.647524
128.115
-4.16436
-3.15319
-3.6292
-2.93706
-1.68663
-1.3746
-1.57572
-1.0632
0.777144
17.0241
19.1602
14.5786
12.8258
3.96323
0.719541
0.738048
0.666271
0.715787
531.673
-2.47025
-2.4368
-2.42928
-2.22771
-1.89364
-1.94847
-1.33491
-1.07538
-1.1541
3.35283
20.2328
22.3774
23.1621
7.35961
0.586535
0.712992
0.84548
0.832504
754.713
-3.64449
-1.46622
-1.97774
-2.16126
-1.81497
-1.0696
-0.879086
-0.847667
-0.598455
-0.258302
7.67489
21.4984
23.3791
9.59699
0.763629
0.812545
0.933197
1.16008
778.599
-3.30407
-0.664515
-2.14299
-1.26346
-2.22703
-1.87064
-0.498789
-0.920258
-0.820475
-0.723543
-0.343255
8.013
11.0764
3.12305
0.601273
0.826298
0.94614
1.92081
518.399
-2.47405
-0.66382
-2.47453
-2.7458
-0.755588
-0.765894
-0.654037
-0.750303
-0.41743
-0.745814
-0.345335
1.37735
3.35443
1.17915
0.20302
0.6701
0.885973
3.03228
64.2115
-1.89778
-0.388016
-2.30158
-2.39639
-0.210258
-0.733694
-0.492841
-0.589736
-0.000488684
-0.894761
-0.410287
1.25007
2.24054
0.872153
0.401221
0.615004
1.2216
4.97512
11.6602
-2.50007
-0.242666
-0.668503
-2.05456
-1.74101
-0.0938621
-0.481561
-0.547608
-0.195447
-0.333392
0.392323
1.91042
2.52114
0.689126
0.531983
1.14006
0.447906
2.90457
5.27876
-1.61941
-0.771157
-1.16282
-0.658661
-1.91338
-0.0547753
0.0724914
-0.848225
-0.168449
-0.673311
1.57426
6.53955
3.47972
0.511405
0.454462
-0.502378
0.492632
2.04615
3.01259
-1.16968
-1.06439
-0.86828
-0.975822
-0.77364
-0.431232
-0.234731
-0.460439
-0.156514
0.27234
6.50107
9.83315
3.92609
0.502302
0.206118
0.361847
0.000628553
-0.0342909
1.99198
-1.17397
-1.30814
-0.920306
-0.739484
-0.677487
-0.510206
-0.275977
-0.194597
0.0197796
1.68278
11.31
9.63094
2.39037
-0.0966404
0.122486
-0.368089
0.00372191
0.526648
0.134202
-0.698441
-1.57376
-0.961458
-1.04183
-0.355434
-0.0945783
-0.599789
-0.0705965
-0.523568
0.640468
11.7998
8.00091
2.03457
0.292005
0.325109
0.528735
0.249197
0.0838818
0.371467
-0.897483
-1.16309
-0.970949
-0.339475
-0.692884
-0.307365
-0.366918
-0.229402
0.0849528
3.08796
10.6996
4.33858
0.840142
0.294923
0.416075
0.24034
0.591959
0.344356
-0.392151
-0.898777
-0.616329
-0.47823
-0.0437317
-1.06739
-0.083639
-0.755641
0.198273
0.0102066
4.74234
4.86338
1.49307
0.154993
-0.0553318
0.169004
-0.255873
-0.395635
-0.614237
0.169542
-0.567729
-0.656967
-0.356951
-0.54286
-0.40361
-0.0616604
0.0414202
-0.233242
0.00063887
4.57205
2.0564
0.259986
0.429151
0.174862
0.364018
0.182156
-0.254488
-0.332098
-0.0213074
-0.646988
-0.312008
-0.390486
-0.239713
-0.1774
-0.0586062
1.12649
1.07733
2.61446
1.16612
-0.0475355
-0.0746468
-0.394301
-0.39474
-0.689089
-0.813038
-0.48096
-0.529247
-0.787696
)
;

boundaryField
{
    leftWall
    {
        type            zeroGradient;
    }
    rightWall
    {
        type            zeroGradient;
    }
    lowerWall
    {
        type            zeroGradient;
    }
    atmosphere
    {
        type            totalPressure;
        rho             rho;
        psi             none;
        gamma           1;
        p0              uniform 0;
        value           nonuniform List<scalar> 
46
(
0
0
0
0
0
0
0
0
0
0
0
0
0
0
0
0
-1.42617e-07
-0.0791223
-0.352003
-0.63289
-0.950769
-1.06893
-0.294833
0
-0.486507
-0.66449
-0.538862
-0.0341083
-0.01645
0
0
0
0
0
0
0
0
-0.000106898
-0.0270015
-0.0971201
-0.281858
-0.406192
-0.514234
-0.53874
-0.590799
-0.548807
)
;
    }
    defaultFaces
    {
        type            empty;
    }
}


// ************************************************************************* //
