/*--------------------------------*- C++ -*----------------------------------*\
| =========                 |                                                 |
| \\      /  F ield         | foam-extend: Open Source CFD                    |
|  \\    /   O peration     | Version:     4.1                                |
|   \\  /    A nd           | Web:         http://www.foam-extend.org         |
|    \\/     M anipulation  |                                                 |
\*---------------------------------------------------------------------------*/
FoamFile
{
    version     2.0;
    format      ascii;
    class       surfaceScalarField;
    location    "0.65";
    object      phi_0;
}
// * * * * * * * * * * * * * * * * * * * * * * * * * * * * * * * * * * * * * //

dimensions      [0 3 -1 0 0 0 0];

internalField   nonuniform List<scalar> 
4432
(
4.48449e-07
-4.48449e-07
-1.22721e-06
1.67566e-06
-2.19946e-06
9.72255e-07
-1.87746e-06
-3.22002e-07
-3.2199e-06
1.34243e-06
-5.04094e-06
1.82105e-06
-5.54031e-06
4.99365e-07
-4.93528e-06
-6.05024e-07
-4.01691e-06
-9.18374e-07
-4.89067e-06
8.73761e-07
-2.65e-06
-2.24067e-06
-3.66177e-07
-2.28383e-06
7.01646e-07
-1.06782e-06
2.10458e-06
-1.40293e-06
3.13753e-06
-1.03295e-06
4.04352e-06
-9.05987e-07
5.27767e-06
-1.23415e-06
5.9217e-06
-6.44029e-07
6.08424e-06
-1.62544e-07
5.59252e-06
4.91725e-07
4.12937e-06
1.46315e-06
2.50416e-06
1.62521e-06
2.50416e-06
3.5326e-07
-8.01709e-07
-4.05061e-07
2.43398e-06
-8.57534e-07
1.42473e-06
-1.74532e-06
5.6578e-07
-3.25404e-06
2.85116e-06
-5.09537e-06
3.66237e-06
-5.55854e-06
9.62541e-07
-4.69203e-06
-1.47154e-06
-6.06059e-06
4.50189e-07
-3.71657e-06
-1.47026e-06
-1.88358e-06
-4.07366e-06
-2.28662e-06
-1.88078e-06
-1.5888e-06
-1.76565e-06
-5.03405e-07
-2.48833e-06
2.40642e-07
-1.777e-06
1.40271e-06
-2.06805e-06
3.21144e-06
-3.04289e-06
4.45399e-06
-1.88658e-06
4.9458e-06
-6.54353e-07
4.69241e-06
7.4511e-07
3.52544e-06
2.63012e-06
1.51119e-06
3.63947e-06
4.01534e-06
-2.92044e-08
-7.72505e-07
-2.68575e-07
2.67335e-06
-1.14275e-06
2.2989e-06
-3.39893e-06
2.82196e-06
-6.19635e-06
5.64858e-06
-5.39211e-06
2.85813e-06
-5.82511e-06
1.39554e-06
-4.53428e-06
-2.76236e-06
-5.93057e-06
1.84648e-06
-2.15605e-06
-5.24479e-06
-3.60112e-06
-2.62859e-06
-3.22723e-06
-2.25468e-06
-1.91761e-06
-3.07526e-06
-2.9268e-06
-1.47914e-06
-1.23935e-06
-3.46444e-06
-1.68625e-06
-1.62116e-06
1.60458e-07
-4.88959e-06
1.89954e-06
-3.62566e-06
3.00428e-06
-1.7591e-06
3.57252e-06
1.76875e-07
3.28434e-06
2.9183e-06
1.88451e-06
5.03929e-06
5.89986e-06
-4.53708e-07
-3.18797e-07
1.29525e-07
2.09012e-06
-3.70834e-07
2.79926e-06
-1.67582e-06
4.12694e-06
-3.33083e-06
7.3036e-06
-5.75061e-06
5.2779e-06
-6.13546e-06
1.78038e-06
-9.34826e-06
4.50439e-07
-4.76521e-06
-2.73656e-06
-8.04224e-06
-1.96775e-06
-8.59058e-06
-2.08025e-06
-1.04723e-05
-3.72919e-07
-1.14935e-05
-2.05409e-06
-1.1719e-05
-1.25361e-06
-1.10773e-05
-4.1062e-06
-1.03014e-05
-2.39703e-06
-8.34094e-06
-6.85007e-06
-5.99928e-06
-5.96731e-06
-2.71457e-06
-5.04381e-06
4.4839e-07
-2.98608e-06
1.91459e-06
1.45211e-06
1.55721e-06
5.39666e-06
7.45707e-06
-1.22676e-07
-1.96121e-07
5.50715e-07
1.41673e-06
1.11733e-07
3.23824e-06
-2.04616e-06
6.28483e-06
-3.26794e-06
8.52538e-06
-6.33133e-06
8.3413e-06
-6.99931e-06
2.44836e-06
-7.05168e-06
5.02805e-07
-6.97939e-06
-2.80885e-06
-1.17886e-05
2.8415e-06
-1.25693e-05
-1.29965e-06
-1.34633e-05
5.21104e-07
-1.42445e-05
-1.27284e-06
-1.46235e-05
-8.74592e-07
-1.56174e-05
-3.11238e-06
-1.59188e-05
-2.09556e-06
-1.3756e-05
-9.01286e-06
-1.22932e-05
-7.43012e-06
-1.02909e-05
-7.04618e-06
-5.88785e-06
-7.38908e-06
-8.08494e-07
-3.62725e-06
1.47068e-06
3.11749e-06
8.92775e-06
5.94314e-07
-7.90435e-07
1.31784e-06
6.93205e-07
5.64041e-07
3.99204e-06
-1.91826e-06
8.76713e-06
-3.90849e-06
1.05156e-05
-7.35534e-06
1.17881e-05
-8.20629e-06
3.29931e-06
-7.66137e-06
-4.21176e-08
-1.49381e-05
4.46789e-06
-1.52614e-05
3.16483e-06
-1.71648e-05
6.0372e-07
-1.79528e-05
1.30911e-06
-1.85624e-05
-6.63299e-07
-1.8409e-05
-1.02797e-06
-1.74612e-05
-4.06012e-06
-1.74933e-05
-2.06353e-06
-1.68583e-05
-9.64787e-06
-1.54815e-05
-8.80691e-06
-1.3301e-05
-9.22667e-06
-1.19254e-05
-8.76462e-06
-3.35714e-06
-1.21956e-05
-2.39567e-07
-8.05516e-11
8.68818e-06
1.05029e-06
-1.84072e-06
1.59258e-06
1.50916e-07
6.58207e-07
4.92641e-06
-1.07936e-06
1.05047e-05
-4.07199e-06
1.35082e-05
-8.25344e-06
1.59696e-05
-1.89617e-05
1.40076e-05
-1.95265e-05
5.22682e-07
-1.94659e-05
4.4073e-06
-1.87384e-05
2.4373e-06
-1.92576e-05
1.12297e-06
-1.89934e-05
1.04485e-06
-1.88501e-05
-8.06559e-07
-1.86317e-05
-1.24632e-06
-1.91297e-05
-3.56221e-06
-1.98678e-05
-1.32534e-06
-1.74965e-05
-1.20192e-05
-1.60261e-05
-1.02773e-05
-1.45969e-05
-1.06558e-05
-1.30204e-05
-1.03411e-05
-7.13259e-06
-1.80834e-05
2.17364e-07
-7.35004e-06
8.90555e-06
8.98706e-07
-2.73943e-06
1.33988e-06
-2.90258e-07
3.49072e-07
5.91722e-06
-2.56647e-06
1.34202e-05
-8.13246e-06
1.90742e-05
-9.27461e-06
1.71118e-05
-1.20219e-05
1.67548e-05
-2.13214e-05
9.82223e-06
-2.1036e-05
4.12188e-06
-2.17399e-05
3.14117e-06
-2.13835e-05
7.66592e-07
-2.05089e-05
1.70276e-07
-2.05797e-05
-7.3576e-07
-2.00712e-05
-1.75488e-06
-2.02043e-05
-3.4291e-06
-2.11113e-05
-4.18274e-07
-1.64271e-05
-1.67035e-05
-1.45993e-05
-1.21051e-05
-1.38194e-05
-1.14358e-05
-1.40685e-05
-1.0092e-05
-8.832e-06
-2.33199e-05
-2.01733e-06
-1.41647e-05
6.88821e-06
-0.000117988
0.000117988
-0.000151592
3.36039e-05
-0.00016253
1.09381e-05
-0.000157241
-5.2888e-06
-0.000149394
-7.84699e-06
-0.000144288
-5.10556e-06
-0.000149023
4.73469e-06
-0.00015766
8.63733e-06
-0.000162021
4.36035e-06
-0.0001633
1.27969e-06
-0.000165466
2.1661e-06
-0.000150557
-1.49091e-05
-0.000137587
-1.29705e-05
-0.000129945
-7.64218e-06
-6.58313e-05
-6.41133e-05
-4.57027e-05
-2.01285e-05
-3.39506e-05
-1.17521e-05
-6.05308e-06
-2.78976e-05
-6.05308e-06
-0.000102016
0.000220004
-0.000129314
6.09012e-05
-0.000134305
1.59292e-05
-0.00012909
-1.05039e-05
-0.000124093
-1.28439e-05
-0.000124097
-5.10095e-06
-0.000134142
1.47797e-05
-0.000142298
1.67926e-05
-0.000147272
9.33425e-06
-0.000149559
3.56677e-06
-0.000153032
5.63941e-06
-0.00014214
-2.58006e-05
-0.0001334
-2.17108e-05
-6.79377e-05
-7.31046e-05
-5.82542e-05
-7.37968e-05
-5.12684e-05
-2.71144e-05
-3.38857e-05
-2.91348e-05
-7.37711e-06
-5.44062e-05
-1.34302e-05
-4.82102e-05
0.000268214
-9.66482e-05
0.000109339
-0.000103107
2.23883e-05
-9.1066e-05
-2.25454e-05
-7.03219e-05
-3.35879e-05
-7.17406e-05
-3.68227e-06
-5.29288e-05
-4.0321e-06
-6.61081e-05
2.99719e-05
-0.000135285
7.85109e-05
-0.000145937
1.42192e-05
-8.08322e-05
-5.94656e-05
-0.000123357
1.67244e-05
-0.000111974
-3.30938e-05
-6.27387e-05
-0.00012234
-0.000101817
-3.47189e-05
-8.57617e-05
-4.31693e-05
-7.17988e-05
-4.30977e-05
-4.66609e-05
-7.9544e-05
-6.00911e-05
-4.01533e-05
0.000308368
-9.36082e-05
0.000162794
-5.90894e-05
-1.21305e-05
-8.20143e-05
3.79559e-07
-5.29261e-05
-6.26762e-05
-4.36629e-05
-1.29454e-05
-7.34554e-05
2.57604e-05
-0.000102284
5.88008e-05
-5.9265e-05
3.54916e-05
-0.000101778
5.6732e-05
-0.000118239
-4.30048e-05
-6.83141e-05
-3.32002e-05
-2.32837e-05
-7.81242e-05
-5.29896e-05
-9.26342e-05
-5.48887e-05
-3.28198e-05
-9.03078e-05
-7.75013e-06
-7.88304e-05
-5.45751e-05
-6.65198e-05
-9.18546e-05
-0.000126611
-3.02195e-05
0.000338587
-7.18201e-05
0.000204395
-9.41171e-05
1.01664e-05
-7.51677e-05
-1.85698e-05
-4.59958e-05
-9.18481e-05
-1.17123e-05
-4.7229e-05
-2.40003e-05
3.80483e-05
-1.94385e-05
5.42391e-05
-3.90093e-05
5.50624e-05
-5.82871e-07
1.83055e-05
1.42996e-05
-5.78873e-05
4.36424e-05
-6.25429e-05
2.08896e-05
-5.53714e-05
-2.75274e-05
-4.42172e-05
-8.62664e-05
2.59191e-05
-8.31915e-05
-1.0825e-05
-7.49383e-05
-6.28283e-05
-5.41918e-05
-0.000112601
-0.000180803
-2.04244e-05
0.000359012
-5.87266e-05
0.000242697
-7.75422e-05
2.89821e-05
-4.54775e-05
-5.06345e-05
-2.45331e-05
-0.000112792
-6.40116e-06
-6.53609e-05
8.62135e-06
2.30258e-05
1.88574e-05
4.4003e-05
4.46205e-05
2.92993e-05
6.35037e-05
-5.77646e-07
5.90683e-05
-5.34519e-05
5.74828e-05
-6.09574e-05
3.68362e-05
-3.47248e-05
-1.94187e-05
1.20378e-05
-7.84433e-05
8.49437e-05
-7.4793e-05
-1.44753e-05
-7.12598e-05
-6.63615e-05
-2.26608e-05
-0.0001612
-0.000203464
-1.15623e-05
0.000370574
-3.09323e-05
0.000262067
-2.76381e-05
2.56879e-05
-2.28295e-05
-5.5443e-05
-4.77328e-06
-0.000130849
-1.22496e-05
-5.78846e-05
9.60648e-06
1.16974e-06
2.41566e-05
2.94529e-05
3.33116e-05
2.01443e-05
7.36088e-05
-4.08748e-05
6.02224e-05
-4.00655e-05
2.74982e-05
-2.82333e-05
7.69501e-06
-1.49216e-05
-2.69586e-05
4.66914e-05
-4.04689e-05
9.84539e-05
-7.67261e-05
2.17819e-05
-5.27329e-05
-9.03547e-05
-9.23853e-06
-0.000204695
-0.000212702
4.13516e-07
0.00037016
8.72751e-06
0.000253753
-5.43753e-06
3.98529e-05
2.24499e-06
-6.31256e-05
6.54295e-06
-0.000135147
4.72066e-06
-5.60623e-05
1.0617e-05
-4.7266e-06
2.10751e-05
1.89947e-05
4.86816e-05
-7.46221e-06
5.65908e-05
-4.8784e-05
5.43652e-05
-3.78399e-05
4.55386e-05
-1.94067e-05
2.4557e-06
2.81614e-05
-2.64879e-05
7.5635e-05
-4.36952e-05
0.000115661
-4.59297e-05
2.40164e-05
-1.54746e-05
-0.00012081
4.12794e-06
-0.000224297
-0.000208574
-1.53868e-06
-1.20075e-06
-1.887e-06
5.8061e-08
-6.57961e-06
1.06098e-05
-1.52101e-05
2.20507e-05
-4.03323e-05
4.41964e-05
-5.1098e-05
2.78774e-05
-5.52652e-05
2.0922e-05
-5.46736e-05
9.23066e-06
-5.26989e-05
2.14716e-06
-4.81896e-05
-1.3681e-06
-4.49345e-05
-2.48851e-06
-4.23601e-05
-2.40412e-06
-4.11521e-05
-1.94374e-06
-3.82883e-05
-4.61871e-06
-4.21752e-05
4.57767e-07
-2.64342e-05
-1.61593e-05
-4.00397e-05
-3.09799e-06
-3.42067e-05
-1.79381e-05
-2.88203e-05
-1.68221e-05
-1.16811e-05
-2.72312e-05
-6.16686e-06
-2.88342e-05
4.14597e-06
-2.44775e-05
-2.37372e-05
3.47713e-05
-1.23855e-05
1.11847e-05
-3.15999e-05
1.92725e-05
-5.15301e-05
3.05401e-05
-8.60483e-05
5.65688e-05
-7.48912e-05
3.30394e-05
-9.44721e-05
4.74583e-05
-7.87533e-05
5.20326e-06
-6.61739e-05
-3.3487e-06
-5.58671e-05
-8.1597e-06
-4.70739e-05
-1.01613e-05
-4.07229e-05
-8.83951e-06
-3.65041e-05
-6.6229e-06
-3.15676e-05
-6.88024e-06
-3.0831e-05
-5.35529e-06
-2.14608e-05
-8.91244e-06
-2.01225e-05
-1.74976e-05
-1.45994e-05
-8.62101e-06
-1.76036e-05
-1.49339e-05
-1.68924e-05
-1.75334e-05
-1.12075e-05
-3.29161e-05
-7.12496e-06
-3.29167e-05
-5.02193e-06
-2.65806e-05
-5.10094e-05
2.22504e-05
-4.0754e-05
5.19387e-05
-8.67317e-05
6.52501e-05
-0.0001598
0.000103608
-0.000157558
5.43277e-05
-0.000138705
1.41865e-05
-8.83338e-05
-2.91335e-06
-6.98052e-05
-1.33253e-05
-8.60133e-05
1.28594e-05
-7.56706e-05
-1.85024e-05
-6.66975e-05
-1.91343e-05
-5.22407e-05
-2.32963e-05
-4.36429e-05
-1.52207e-05
-4.00139e-05
-1.05093e-05
-4.08855e-05
-4.48368e-06
-4.516e-05
-4.63788e-06
-4.36015e-05
-1.90562e-05
-3.66522e-05
-1.55704e-05
-3.39248e-05
-1.76612e-05
-3.62923e-05
-1.51659e-05
-4.21209e-05
-2.70874e-05
-3.62079e-05
-3.88297e-05
-1.50167e-05
-4.77718e-05
-6.31521e-05
-2.87409e-06
-7.15003e-05
0.000123439
-9.31198e-05
8.68696e-05
-8.09144e-05
9.14025e-05
-0.00015618
0.000129593
-0.000160003
1.80096e-05
-0.000147483
-1.54337e-05
-0.000137146
-2.36617e-05
-0.000125644
1.35685e-06
-0.000126217
-1.79294e-05
-7.10856e-05
-7.42653e-05
-6.60196e-05
-2.83623e-05
-6.35652e-05
-1.76751e-05
-0.000107776
3.37016e-05
-0.000119473
7.2127e-06
-7.95816e-05
-4.45288e-05
-7.46687e-05
-2.39691e-05
-5.91492e-05
-3.10898e-05
-8.85918e-05
1.17813e-05
-8.33709e-05
-2.03868e-05
-7.40505e-05
-3.64078e-05
-5.71202e-05
-5.576e-05
-4.21468e-05
-6.27451e-05
-6.1246e-05
-4.40529e-05
-1.83783e-05
0.000141817
-3.1556e-05
0.000100047
-9.09468e-05
0.000150793
-5.57752e-05
9.44214e-05
-0.000120285
8.25195e-05
-0.000146528
1.08094e-05
-0.000154933
-1.52569e-05
-0.000141946
-1.16299e-05
-0.000139574
-2.03018e-05
-0.000177063
-3.67763e-05
-0.000178144
-2.72815e-05
-0.000181329
-1.44897e-05
-0.000160772
1.31444e-05
-0.000140759
-1.28004e-05
-0.000161927
-2.33605e-05
-0.000101271
-8.4625e-05
-0.000148731
1.63701e-05
-0.000142367
5.41738e-06
-0.000144602
-1.81524e-05
-0.00014178
-3.92295e-05
-7.53408e-05
-0.000122199
-0.000120342
-1.77442e-05
-6.99432e-05
-0.000111644
-1.29214e-05
0.000154739
-7.73141e-07
8.7899e-05
1.83261e-05
0.000131694
-3.01735e-05
0.000142921
-4.49703e-05
9.73163e-05
-0.000102007
6.78463e-05
-0.000145235
2.79709e-05
-0.000163245
6.37987e-06
-0.000171576
-1.19707e-05
-0.000187651
-2.07011e-05
-0.00019589
-1.9043e-05
-0.00019378
-1.65993e-05
-0.000175051
-5.58496e-06
-0.000168787
-1.90636e-05
-0.000130888
-6.12602e-05
-0.000189262
-2.62506e-05
-0.000160456
-1.24362e-05
-0.000122383
-3.26553e-05
-4.82109e-05
-9.23248e-05
-1.60298e-05
-7.14106e-05
-5.84811e-05
-7.97479e-05
-7.29578e-05
-3.26745e-06
-4.91509e-06
-0.000137986
1.57249e-06
0.000153166
-2.75806e-05
0.000117052
-1.49541e-05
0.000119068
4.95235e-06
0.000123015
-4.94274e-06
0.000107211
-2.8527e-05
9.14306e-05
-5.89508e-05
5.83946e-05
-0.000122674
7.01027e-05
-0.000156154
2.15098e-05
-0.00018282
5.96444e-06
-0.000215094
1.32312e-05
-0.000243918
1.2225e-05
-0.000273209
2.37058e-05
-0.000275783
-1.64897e-05
-0.000299419
-3.76243e-05
-0.00028526
-4.04094e-05
-0.000246255
-5.1441e-05
-0.000173572
-0.000105338
-0.000145485
-0.000120413
-6.59863e-05
-0.000150909
6.56664e-05
-0.000211401
0.000144476
-8.20767e-05
7.59011e-05
6.36598e-05
-4.13758e-06
0.000157304
-6.56511e-06
0.00011948
-8.92894e-07
0.000113395
3.58315e-06
0.000118538
-1.02483e-05
0.000121043
-1.82833e-05
9.94655e-05
-4.25047e-05
8.26161e-05
-7.44139e-05
0.000102012
-9.05546e-05
3.76504e-05
-0.000167867
8.32767e-05
-0.000202833
4.8197e-05
-0.000230105
3.9497e-05
-0.000282083
7.56845e-05
-0.000325501
2.69283e-05
-0.000332615
-3.05111e-05
-0.000349762
-2.32621e-05
-0.000346764
-5.44386e-05
-0.00035571
-9.63924e-05
-0.000298286
-0.000177837
-0.000337008
-0.000112188
-0.000349985
-0.000198423
-0.000181859
-0.000250203
5.61767e-05
-0.000162134
-4.63361e-06
0.000161937
-1.72694e-05
0.000132115
-1.10326e-05
0.000107159
-4.43488e-06
0.000111941
-1.6657e-05
0.000133265
-4.98616e-05
0.00013267
-8.23815e-05
0.000115136
-0.000117579
0.000137209
-0.000145763
6.58348e-05
-0.000167631
0.000105145
-0.000182901
6.34677e-05
-0.000217757
7.4353e-05
-0.000176349
3.42765e-05
-0.000189428
4.00072e-05
-0.000283499
6.35598e-05
-0.000332542
2.57808e-05
-0.000409257
2.22763e-05
-0.000463499
-4.21505e-05
-0.000539579
-0.000101756
-0.000449455
-0.000202312
-0.000535451
-0.000112427
-0.000685477
-0.000100177
-0.000113273
-0.000516027
-4.24512e-06
0.000166183
-1.43542e-05
0.000142225
-1.10386e-05
0.000103843
-7.81141e-06
0.000108713
-1.77573e-05
0.000143211
-4.16437e-05
0.000156557
-6.62269e-05
0.000139719
-6.34318e-05
0.000134414
-0.000158982
0.000161385
-0.000111252
5.74142e-05
-0.000195992
0.000148208
-0.000203427
8.17883e-05
-0.000278414
0.000109263
-0.000341843
0.000103437
-0.000365005
8.67217e-05
-0.000406511
6.72865e-05
-0.000429003
4.47685e-05
-0.000668337
0.000197183
-0.000827989
5.78959e-05
-0.00104088
1.05822e-05
-0.00111683
-3.64774e-05
-0.0011351
-8.19112e-05
-5.17961e-05
-0.00119658
-7.62189e-06
0.000173804
-1.81226e-05
0.000152725
-2.90707e-05
0.000114791
-3.51868e-06
8.31614e-05
-1.79542e-05
0.000157646
-3.39629e-05
0.000172565
-6.7963e-05
0.000173719
-9.1078e-05
0.000157529
-8.42932e-05
0.0001546
-0.000170019
0.00014314
-0.000205021
0.00018321
-0.000256912
0.000133679
-0.000285229
0.00013758
-0.000304002
0.000122211
-0.000288639
7.13583e-05
-0.000361681
0.000140329
-0.000447266
0.000130353
-0.000353378
0.000103295
-0.000393296
9.78131e-05
-0.000468788
8.60748e-05
-0.000688652
0.000183387
-0.000752427
-1.81364e-05
-1.21774e-05
-0.000792046
-7.10257e-06
0.000180907
-1.05959e-05
0.000156219
-1.47695e-05
0.000118965
-2.26113e-05
9.10033e-05
-3.81331e-05
0.000173168
-5.52595e-05
0.000189692
-7.55513e-05
0.000194011
-0.000103973
0.000185951
-0.000124996
0.000175623
-0.000140627
0.000158771
-0.000114205
0.000156787
-0.000116593
0.000136068
-0.000148829
0.000169815
-0.000179195
0.000152578
-0.000305023
0.000197186
-0.000350279
0.000185584
-0.000416402
0.000196476
-0.000496198
0.000183091
-0.000549806
0.000151422
-0.000541275
7.75438e-05
-0.000359495
1.60671e-06
-0.000284734
-9.2897e-05
-2.21884e-05
-0.000274723
-7.08421e-06
0.000187991
-1.76536e-05
0.000166788
-2.61433e-05
0.000127454
-3.84561e-05
0.000103316
-4.93493e-05
0.000184061
-6.65265e-05
0.000206869
-8.79241e-05
0.000215409
-0.000122676
0.000220702
-7.32684e-05
0.000126216
-0.000150044
0.000235547
-0.000114999
0.000121742
-0.000226153
0.000247222
-0.000290324
0.000233986
-0.000289058
0.000151311
-0.000279951
0.00018808
-0.000359659
0.000265293
-0.000415355
0.000252172
-0.000459854
0.00022759
-0.000415614
0.000107182
-0.000401346
6.32762e-05
-0.000353662
-4.60772e-05
-0.000309629
-0.000136931
-0.000128388
-0.000203429
-7.34133e-06
0.000195333
-1.86731e-05
0.00017812
-2.30724e-05
0.000131854
-3.64302e-05
0.000116674
-4.84421e-05
0.000196073
-5.25502e-05
0.000210977
-5.57381e-05
0.000218596
-4.30177e-05
0.000207982
-0.00013495
0.000218149
-0.000154769
0.000255366
-0.000171696
0.000138669
-0.000187773
0.000263298
-0.000196168
0.000242381
-0.000215263
0.000170407
-0.000320026
0.000292842
-0.00018963
0.000134897
-0.000196527
0.000259069
-0.000205145
0.000236208
-0.000315957
0.000217993
-0.000221846
-3.08343e-05
-0.000225655
-4.22679e-05
-0.000325837
-3.67488e-05
-8.24692e-05
-0.000371756
-2.3387e-06
0.000197671
-4.02874e-06
0.00017981
-1.33803e-05
0.000141205
-8.34704e-05
0.000186764
-2.63552e-05
0.000138958
-3.85643e-05
0.000223186
-5.66798e-05
0.000236712
-7.12193e-05
0.000222522
-8.55635e-05
0.000232493
-6.72829e-05
0.000237085
-0.000167331
0.000238717
-0.000179001
0.000274969
-9.05541e-05
0.000153934
-0.000210891
0.000290744
-0.000174482
0.000256433
-0.000312519
0.000272934
-0.000347235
0.000293786
-0.000346712
0.000235684
-0.000221039
9.23207e-05
-0.000311638
5.97643e-05
-0.000327298
-2.66081e-05
-0.000315585
-4.84618e-05
-4.70673e-05
-0.000350987
-1.53936e-05
0.000213065
-2.50648e-05
0.000189481
-3.04464e-07
0.000116445
-5.35819e-06
0.000191818
-6.05853e-05
0.000194185
-5.74093e-05
0.00022001
-3.87882e-05
0.000218091
-7.31167e-05
0.00025685
-0.000101439
0.000260815
-0.000129525
0.00026517
-0.000156304
0.000265496
-8.46045e-05
0.000203269
-0.000147448
0.000216777
-0.000207655
0.000350951
-0.000144912
0.00019369
-0.000259588
0.00038761
-0.000159072
0.00019327
-0.000148967
0.000225579
-0.000250473
0.000193826
-0.000211939
2.12307e-05
-0.000217171
-2.13764e-05
-0.000253111
-1.25215e-05
3.16948e-05
-0.000331873
-9.56515e-06
0.00022263
-1.34685e-05
0.000193384
-2.79174e-05
0.000130894
-6.25765e-05
0.000226477
-1.89752e-05
0.000150584
-2.78037e-05
0.000228839
-3.84619e-05
0.000228749
-3.72852e-05
0.000255673
-5.46333e-05
0.000278163
-8.05468e-05
0.000291084
-1.09362e-05
0.000195886
-9.70791e-05
0.000289412
-9.38457e-05
0.000213544
-0.000110241
0.000367346
-0.000167179
0.000250628
-0.000169092
0.000389523
-0.000191421
0.000215599
-0.000218638
0.000252796
-7.5293e-05
5.04813e-05
-5.46316e-05
5.69302e-07
-4.8415e-05
-2.75929e-05
-9.84723e-05
3.75358e-05
0.000176288
-0.000243066
1.79214e-06
0.000220838
-9.64318e-06
0.00020482
-7.81964e-05
0.000199447
-2.0058e-05
0.000168339
-4.30221e-05
0.000173548
-5.38108e-05
0.000239627
-8.3249e-06
0.000183263
-2.33333e-05
0.000270682
-3.89211e-05
0.000293751
-3.49561e-05
0.000287119
-6.07669e-05
0.000221697
-4.24724e-05
0.000271118
-7.82381e-05
0.00024931
-6.31186e-05
0.000352227
-0.000216814
0.000404323
-0.000183943
0.000356652
-0.000380729
0.000412384
-0.000317
0.000189067
-0.000307239
4.07204e-05
-0.000310976
4.3063e-06
-0.000330583
-7.98561e-06
-0.000309822
1.67747e-05
0.000178456
-0.00031199
1.80762e-06
0.00021903
7.60906e-06
0.000199018
2.38801e-05
0.000183176
-2.48416e-05
0.00021706
-9.49829e-05
0.000243689
-7.94464e-06
0.000152589
-7.62367e-06
0.000182942
-1.31751e-05
0.000276233
-1.05456e-05
0.000291122
-1.11876e-05
0.000287761
-7.99733e-05
0.000290482
3.78513e-07
0.000190766
-7.79283e-05
0.000327616
-8.0184e-05
0.000354482
-0.000126458
0.000450597
-0.0002697
0.000499894
-0.000369804
0.000512489
-0.000384953
0.000204216
-0.000408565
6.43324e-05
-0.000416633
1.23737e-05
-0.000420876
-3.74214e-06
-0.000388742
-1.53593e-05
0.00010091
-0.000311196
-3.31099e-06
0.000222341
3.2562e-08
0.000195675
-1.18197e-06
0.00018439
-7.59682e-06
0.000223475
2.74778e-06
0.000233345
1.86548e-05
0.000136682
-3.81373e-05
0.000239734
-2.13701e-05
0.000259466
-8.30029e-06
0.000278052
-1.26285e-05
0.000292089
-5.6794e-06
0.000283533
-1.45911e-05
0.000199678
-3.13077e-05
0.000344333
-7.52964e-05
0.000398471
-7.6297e-05
0.000451597
-0.000145087
0.000568684
-0.000216999
0.000584401
-0.000312958
0.000300175
-0.000327753
7.91272e-05
-0.000273034
-4.23454e-05
-0.000294484
1.77085e-05
-0.000387863
7.80194e-05
0.000139244
-0.000426197
-3.67667e-06
0.000226018
4.07074e-07
0.000191591
5.74693e-07
0.000184223
-7.50618e-06
0.000231556
-1.28844e-05
0.000238723
-1.66861e-05
0.000140484
-4.12135e-06
0.000227169
-4.57427e-06
0.000259919
3.51186e-06
0.000269966
3.97843e-06
0.000291623
-2.24703e-06
0.000289759
4.8082e-06
0.000192623
-3.44502e-06
0.000352586
-1.95715e-05
0.000414597
-8.89099e-06
0.000440917
1.02233e-05
0.00054957
-2.51449e-05
0.000619769
-0.000209621
0.00048465
-0.000303943
0.00017345
-0.000399727
5.34385e-05
-0.000455407
7.33882e-05
-0.000437061
5.96738e-05
0.000146182
-0.000444
-2.47708e-06
0.000228495
-5.27646e-07
0.000189642
-1.55723e-06
0.000185252
-6.16621e-06
0.000236165
-3.55946e-06
0.000236116
-6.62003e-06
0.000143544
-7.35364e-06
0.000227903
1.25246e-05
0.000240041
1.75281e-05
0.000264962
2.62193e-05
0.000282931
1.90169e-05
0.000296961
1.44165e-05
0.000197223
1.77124e-05
0.00034929
2.31087e-05
0.000409201
4.30426e-05
0.000420983
7.61496e-05
0.000516463
0.000122884
0.000573035
9.77033e-05
0.000509831
-5.75815e-05
0.000328735
-0.000141973
0.00013783
-0.000157475
8.88904e-05
-0.000177788
7.99863e-05
0.000148399
-0.000180004
-8.35443e-07
0.00022933
9.94028e-07
0.000187812
1.80969e-06
0.000184437
1.14412e-05
0.000226533
2.77796e-05
0.000219778
-2.09321e-05
0.000192256
-8.63032e-06
0.000215601
1.73919e-05
0.000214019
2.00557e-05
0.000262298
2.47883e-05
0.000278199
3.6477e-05
0.000285272
2.69996e-05
0.0002067
5.09928e-05
0.000325297
7.33055e-05
0.000386888
7.32101e-05
0.000421078
0.000104386
0.000485287
0.000171657
0.000505763
0.000201811
0.000479677
0.00014169
0.000388856
8.37111e-05
0.000195809
7.33992e-05
9.92023e-05
-6.74409e-05
0.000220826
0.00014189
-6.09317e-05
5.59494e-06
0.000223736
2.86097e-06
0.000190546
-3.45278e-07
0.000187643
3.65549e-06
0.000222533
7.89912e-06
0.000215534
-1.3433e-06
0.000201498
-1.35457e-05
0.000227804
5.24599e-05
0.000148013
4.00898e-05
0.000274669
5.21382e-05
0.00026615
9.49548e-05
0.000242456
2.24186e-05
0.000279237
4.96691e-05
0.000298047
7.37516e-05
0.000362806
0.000103607
0.000391223
0.000211545
0.00037735
0.000290975
0.000426333
0.000360132
0.00041052
0.000356849
0.000392139
0.000396954
0.000155703
0.00025406
0.000242096
0.000208541
0.000266345
0.000283238
6.7193e-05
6.92118e-06
0.000216814
1.81691e-06
0.00019565
-2.86174e-07
0.000189746
1.51535e-05
0.000207093
2.68599e-05
0.000203828
1.43648e-05
0.000213993
3.25672e-05
0.000209601
2.78792e-05
0.000152701
4.67601e-05
0.000255788
4.16524e-05
0.000271258
4.32291e-05
0.000240879
7.01483e-05
0.000252317
6.55414e-05
0.000302653
9.78605e-05
0.000330487
0.000170022
0.000319062
0.000221737
0.000325635
0.000283452
0.000364618
0.000349429
0.000344543
0.000358156
0.000383411
0.000298143
0.000215716
0.000336339
0.0002039
0.000290089
0.000312596
0.000232464
0.000340863
4.3365e-05
0.000173449
2.62111e-05
0.000212804
-2.48366e-06
0.000218441
-6.77951e-07
0.000205287
4.93684e-05
0.000153781
4.23635e-05
0.000220998
4.59161e-05
0.000206049
3.59313e-05
0.000162686
4.56977e-05
0.000246021
3.30008e-05
0.000283955
0.000109152
0.000164728
0.000108646
0.000252824
0.000122405
0.000288894
0.000137366
0.000315526
0.000115348
0.000341079
0.000256832
0.000184151
0.000265483
0.000355966
0.000229253
0.000380774
0.000422826
0.000189839
0.000459472
0.00017907
0.000325241
0.000338131
0.000340575
0.000297261
7.17319e-05
0.000501307
-3.93843e-06
0.000177388
-3.76625e-06
0.000212632
-2.15713e-05
0.000236246
4.14504e-05
0.000142266
2.79717e-05
0.00016726
3.22031e-05
0.000216767
0.000105711
0.00013254
3.15472e-05
0.00023685
4.6956e-05
0.000230612
5.4898e-05
0.000276013
3.45016e-05
0.000185124
0.00011911
0.000168215
8.55191e-05
0.000322486
8.16509e-05
0.000319394
0.00019606
0.000226671
0.000161942
0.000218268
0.000328956
0.000188953
0.000354629
0.000355101
0.000373125
0.000171343
0.000264767
0.000287428
0.000307818
0.00029508
0.000509567
9.55121e-05
0.000182998
0.000398301
-7.08964e-05
0.000248284
2.07157e-06
0.000139664
2.20026e-05
0.000216315
2.75791e-05
0.000136689
-2.1666e-05
0.000216505
5.28392e-05
0.000142262
4.83983e-05
0.000136981
7.59381e-05
0.00020931
7.17148e-05
0.000234836
8.39692e-05
0.000263759
9.59372e-05
0.000173156
7.47042e-05
0.000189448
8.89884e-05
0.000308201
0.000231521
0.000176862
0.000116529
0.000341662
0.000139783
0.000195014
0.00016318
0.000165556
0.000351393
0.000166887
0.000221693
0.000301044
0.000279388
0.000229733
0.000475532
9.89358e-05
0.000543063
2.79814e-05
9.77322e-05
0.000628329
-7.19356e-06
0.000255478
-3.79736e-06
0.000136268
1.15313e-05
0.000200986
1.18773e-05
0.000136343
3.42644e-05
0.000194118
3.78299e-05
0.000138696
4.19362e-05
0.000132875
3.0512e-05
0.000220734
0.000117049
0.000148299
0.000129737
0.00025107
4.82036e-05
0.00025469
6.30178e-05
0.000174634
0.000209617
0.000161602
0.000117949
0.00026853
0.000196937
0.000262674
0.000232717
0.000159235
0.0002761
0.000122173
0.000316823
0.000126163
0.000367664
0.000250203
0.000402939
0.000194458
0.000373637
0.000128238
0.000308691
9.29276e-05
4.36046e-05
0.000362818
-1.07002e-05
0.000266178
-4.70432e-06
0.000130272
-1.98532e-06
0.000198267
-3.5445e-06
0.000137902
4.76413e-05
0.000142932
4.5281e-05
0.000141057
2.87133e-05
0.000149443
0.000102326
0.000147121
0.000100219
0.000150406
8.06429e-05
0.000270646
0.000193366
0.000141966
0.000146491
0.000221509
8.22384e-05
0.000225855
0.000214511
0.000136257
0.000253688
0.000223497
0.000233614
0.000179308
0.000267854
8.79327e-05
0.000164733
0.000229285
0.000323699
9.1237e-05
0.000354485
0.000163672
0.000362816
0.000119906
0.000308171
0.000147573
1.84944e-05
0.000333281
-1.23335e-05
0.000278511
-1.2871e-05
0.00013081
4.91972e-05
0.000136199
5.78279e-05
0.000129271
5.20691e-05
0.000148691
5.82797e-05
0.000134846
6.83547e-05
0.000139368
7.67589e-05
0.000138717
9.39535e-05
0.000133211
0.000121775
0.000242825
0.000127291
0.000136451
0.000149099
0.0001997
0.000178875
0.000196079
0.000197488
0.000117644
0.000217329
0.000203656
0.000255798
0.000140839
0.000173193
0.000170538
0.000242576
0.000159901
0.000255378
7.84348e-05
0.000339256
7.97945e-05
0.000364389
9.4773e-05
0.000405586
0.000106375
9.44031e-05
0.000329678
9.24952e-06
0.000269262
1.61687e-05
0.00012389
1.5728e-05
0.00013664
2.23169e-05
0.000122683
4.22088e-05
0.000128799
5.14045e-05
0.00012565
6.41655e-05
0.000126607
7.83348e-05
0.000124548
9.41209e-05
0.000117425
0.000109386
0.00022756
3.8712e-05
0.000207124
0.000123084
0.000115328
0.000200262
0.000118901
0.000166216
0.00015169
0.00018436
0.000185513
0.000163577
0.000161622
0.00018835
0.000145764
0.00029885
4.9402e-05
0.000275213
0.000102072
0.000300241
5.4766e-05
0.00035353
4.14843e-05
0.000409697
5.02084e-05
2.5144e-05
0.000478956
2.34056e-05
0.000245856
2.70715e-05
0.000120224
3.81496e-05
0.000125562
4.12895e-05
0.000119543
4.96934e-05
0.000120395
5.55282e-05
0.000119815
6.37575e-05
0.000118377
7.24792e-05
0.000115826
8.3248e-05
0.000106656
0.000101514
0.000209294
0.000113467
0.000195171
0.000125268
0.000103527
0.000139383
0.000104786
0.000151751
0.000139322
0.00016643
0.000170835
0.0002462
8.18521e-05
0.000282364
0.000109601
0.000268761
6.3005e-05
0.000282167
8.86652e-05
0.000313995
2.29381e-05
0.000346546
8.93357e-06
0.000384248
1.25061e-05
-2.78783e-05
0.000437271
2.59257e-05
0.000219931
2.77586e-05
0.000118392
3.48483e-05
0.000118472
3.85726e-05
0.000115818
4.35427e-05
0.000115425
4.99176e-05
0.00011344
5.76907e-05
0.000110604
6.50153e-05
0.000108502
7.2705e-05
9.89666e-05
9.14173e-05
0.000190582
9.70413e-05
0.000189547
9.97487e-05
0.00010082
0.000110331
9.42036e-05
0.000156781
9.28724e-05
0.000171976
0.000155639
0.000108046
0.000145781
0.000139363
7.82848e-05
0.000172562
2.98054e-05
0.00026259
-1.36237e-06
0.000286034
-5.05911e-07
0.000312264
-1.72968e-05
0.000342949
-1.81785e-05
2.13055e-05
0.000293765
6.84803e-05
0.00015145
5.57746e-05
0.000131097
4.66654e-05
0.000127581
4.24744e-05
0.000120009
4.11841e-05
0.000116715
4.06882e-05
0.000113936
3.97287e-05
0.000111564
3.65695e-05
0.000111661
2.8335e-05
0.000107201
0.000104301
0.000114616
0.000110647
0.000183201
0.000108106
0.00010336
0.00011308
8.92295e-05
0.000113223
9.27298e-05
0.000125111
0.000143752
0.000182529
8.83633e-05
0.000209246
5.15673e-05
0.000205907
3.3145e-05
0.00022044
-1.58957e-05
0.000241712
-2.17779e-05
0.000302509
-7.8094e-05
0.000380655
-9.63245e-05
-1.54953e-05
0.000417456
1.16201e-05
0.00013983
2.13389e-05
0.000121378
2.69375e-05
0.000121982
3.13725e-05
0.000115574
3.50352e-05
0.000113053
3.89876e-05
0.000109984
4.36299e-05
0.000106921
5.03371e-05
0.000104954
5.8059e-05
9.94792e-05
7.1654e-05
0.000101021
8.58012e-05
0.000169054
9.01447e-05
9.90166e-05
9.80692e-05
8.1305e-05
0.000111368
7.94306e-05
0.000125582
0.000129538
0.000112545
0.0001014
6.96068e-05
9.45053e-05
0.000103882
-1.12977e-06
0.000123815
-3.58295e-05
0.000230072
-0.000128034
0.000311773
-0.000159795
0.000339912
-0.000124464
-5.12286e-05
0.000375646
1.53977e-05
0.000124432
2.0425e-05
0.000116351
2.60855e-05
0.000116322
2.95142e-05
0.000112146
3.22863e-05
0.000110281
3.39268e-05
0.000108343
3.45218e-05
0.000106326
3.60075e-05
0.000103468
3.6062e-05
9.94247e-05
3.88094e-05
9.82735e-05
0.000112292
9.55721e-05
7.58881e-05
0.00013542
8.37603e-05
7.34329e-05
4.55651e-05
0.000117626
4.9354e-05
0.000125749
6.25473e-05
8.8207e-05
0.000120168
3.68845e-05
0.000154516
-3.54773e-05
0.000181528
-6.28417e-05
0.000165021
-0.000111527
0.000135018
-0.000129792
0.000244921
-0.000234367
-0.000208724