/*--------------------------------*- C++ -*----------------------------------*\
| =========                 |                                                 |
| \\      /  F ield         | foam-extend: Open Source CFD                    |
|  \\    /   O peration     | Version:     4.1                                |
|   \\  /    A nd           | Web:         http://www.foam-extend.org         |
|    \\/     M anipulation  |                                                 |
\*---------------------------------------------------------------------------*/
FoamFile
{
    version     2.0;
    format      ascii;
    class       volVectorField;
    location    "0.5";
    object      U_0;
}
// * * * * * * * * * * * * * * * * * * * * * * * * * * * * * * * * * * * * * //

dimensions      [0 1 -1 0 0 0 0];

internalField   nonuniform List<vector> 
2268
(
(0.0438718 -0.00597852 0)
(0.0514456 -0.00329576 0)
(0.100437 -0.00643622 0)
(0.159167 -0.00531539 0)
(0.184186 -0.00176628 0)
(0.238805 -0.00538508 0)
(0.243422 -0.00134655 0)
(0.277158 0.000309033 0)
(0.260468 0.00565356 0)
(0.268195 -0.0181777 0)
(0.227327 -0.0229139 0)
(0.192705 0.00257782 0)
(0.224331 0.00324557 0)
(0.215904 0.00415724 0)
(0.216183 0.0053077 0)
(0.210269 0.00100806 0)
(0.204758 0.00486619 0)
(0.196839 0.00463526 0)
(0.187503 0.000487086 0)
(0.172813 0.00707906 0)
(0.136659 0.0148962 0)
(0.0934151 0.00686611 0)
(0.0422937 0.0189867 0)
(0.0420813 -0.0165476 0)
(0.0522959 -0.00994527 0)
(0.107495 -0.0192649 0)
(0.159229 -0.0140603 0)
(0.184434 -0.0175849 0)
(0.240418 -0.0081024 0)
(0.247171 -0.00843939 0)
(0.284595 -0.00466298 0)
(0.260159 -0.00238832 0)
(0.286124 0.0322018 0)
(0.210092 -0.058775 0)
(0.174449 -0.00512 0)
(0.202817 -0.00918666 0)
(0.193309 -0.000995327 0)
(0.196066 0.000845078 0)
(0.194896 0.00408274 0)
(0.191916 0.00464346 0)
(0.18422 0.0119387 0)
(0.179889 0.0110718 0)
(0.168209 0.0168041 0)
(0.134473 0.0228919 0)
(0.093922 0.0379003 0)
(0.024239 0.0456046 0)
(0.036507 -0.0283192 0)
(0.050889 -0.0186679 0)
(0.115839 -0.0319034 0)
(0.153477 -0.0229743 0)
(0.180749 -0.0213574 0)
(0.241105 -0.019895 0)
(0.249025 -0.0118121 0)
(0.282984 -0.00252248 0)
(0.285511 0.00908081 0)
(0.262539 -0.0193689 0)
(0.198439 -0.0685799 0)
(0.181593 -0.0115113 0)
(0.187474 -0.0119374 0)
(0.177671 0.0028062 0)
(0.176701 0.000208043 0)
(0.175206 0.0077378 0)
(0.172404 0.00546868 0)
(0.170102 0.0141108 0)
(0.167664 0.0279051 0)
(0.159547 0.0298938 0)
(0.134928 0.0479278 0)
(0.104201 0.0594783 0)
(0.0469995 0.0732753 0)
(0.0294064 -0.0371299 0)
(0.050293 -0.028588 0)
(0.122643 -0.0437546 0)
(0.149273 -0.0291015 0)
(0.189083 -0.0389024 0)
(0.242508 -0.0234063 0)
(0.251674 -0.019838 0)
(0.293 -0.014698 0)
(0.237036 0.000296496 0)
(0.191906 -0.0450201 0)
(0.181583 -0.032401 0)
(0.134435 0.00903351 0)
(0.132433 0.00492343 0)
(0.111734 0.0100792 0)
(0.106814 0.00533605 0)
(0.10793 0.00881782 0)
(0.107728 0.00643452 0)
(0.112412 0.014812 0)
(0.114685 0.0197906 0)
(0.124526 0.0324996 0)
(0.11628 0.0500997 0)
(0.105511 0.0797824 0)
(0.0352219 0.117464 0)
(0.0229291 -0.047222 0)
(0.0510755 -0.0406957 0)
(0.124917 -0.055387 0)
(0.152638 -0.0381878 0)
(0.198283 -0.0441779 0)
(0.229873 -0.0352585 0)
(0.241522 -0.0221448 0)
(0.288879 0.00284144 0)
(0.208421 -0.0657519 0)
(0.173377 -0.0107357 0)
(0.144768 -0.0268578 0)
(0.112562 0.00727035 0)
(0.108921 0.00359943 0)
(0.0937163 0.00794332 0)
(0.0860766 0.003132 0)
(0.0682152 -0.000123375 0)
(0.0665052 0.002236 0)
(0.0655182 0.00775837 0)
(0.0578267 0.0168209 0)
(0.07501 0.0293053 0)
(0.0724889 0.0552368 0)
(0.089653 0.0972536 0)
(0.0552457 0.138713 0)
(0.02315 -0.0544443 0)
(0.0588237 -0.0525647 0)
(0.130531 -0.0678678 0)
(0.153852 -0.0465652 0)
(0.191388 -0.0576587 0)
(0.225146 -0.0316288 0)
(0.259428 -0.0387925 0)
(0.218247 -0.00873922 0)
(0.164995 -0.054301 0)
(0.160856 -0.0114641 0)
(0.132986 -0.0065379 0)
(0.0914589 0.0245512 0)
(0.0853324 0.023558 0)
(0.065012 0.0199628 0)
(0.0532817 0.0130983 0)
(0.0512108 0.0174477 0)
(0.0447298 0.00729583 0)
(0.0418316 0.0234885 0)
(0.0406711 0.0105277 0)
(0.0531481 0.0263345 0)
(0.0378565 0.0443698 0)
(0.0789717 0.0909745 0)
(0.0477253 0.188422 0)
(0.0288542 -0.0667545 0)
(0.0654964 -0.0661869 0)
(0.128334 -0.0778209 0)
(0.146274 -0.0523546 0)
(0.192035 -0.0614034 0)
(0.223114 -0.0546727 0)
(0.229791 -0.0137083 0)
(0.194155 -0.0634486 0)
(0.156125 -0.0444951 0)
(0.152035 0.00244159 0)
(0.118753 0.00854913 0)
(0.0830053 0.029446 0)
(0.0781826 0.0290081 0)
(0.0596605 0.0237906 0)
(0.0544286 0.00877673 0)
(0.0373712 0.0063597 0)
(0.0405792 0.00656717 0)
(0.0363095 0.0129503 0)
(0.033664 0.00508765 0)
(0.0472325 0.0300427 0)
(0.0332775 0.0429454 0)
(0.0887652 0.0930931 0)
(0.0712607 0.196079 0)
(0.0364256 -0.0762574 0)
(0.0657248 -0.075774 0)
(0.131072 -0.0865796 0)
(0.14768 -0.0622683 0)
(0.18959 -0.0780414 0)
(0.230043 -0.0346743 0)
(0.192212 -0.0433744 0)
(0.173172 -0.0644888 0)
(0.165253 -0.0357434 0)
(0.143599 0.00936 0)
(0.121734 0.0264883 0)
(0.0841636 0.0418405 0)
(0.0747248 0.0478915 0)
(0.0474996 0.0301896 0)
(0.035376 0.0249771 0)
(0.0418945 0.0220595 0)
(0.0440846 0.00684306 0)
(0.0400064 0.00868404 0)
(0.0521969 -0.000485181 0)
(0.0560269 0.0278931 0)
(0.0483601 0.025376 0)
(0.092141 0.111889 0)
(0.0787137 0.235679 0)
(-0.0150287 -0.0795493 0)
(0.0394573 0.0115633 0)
(0.113459 -0.0166216 0)
(-0.12354 0.0701394 0)
(-1.60487 0.0498513 0)
(-2.09598 -0.0490252 0)
(-2.27427 -0.0684403 0)
(-2.31567 -0.0632702 0)
(-2.21974 -0.0676175 0)
(-2.12758 -0.0698253 0)
(-2.08045 -0.0708519 0)
(-1.98175 -0.115987 0)
(-1.89685 -0.118207 0)
(-1.79615 -0.0960205 0)
(-1.74146 -0.273339 0)
(-1.68335 -0.041041 0)
(-0.68264 -0.199796 0)
(-0.290011 -0.370104 0)
(0.0298557 -0.125562 0)
(-1.5003 0.2636 0)
(-0.601462 -0.208709 0)
(0.316639 0.111733 0)
(-0.25163 0.613772 0)
(-1.52532 0.587275 0)
(-1.97492 0.449373 0)
(-2.12272 0.311058 0)
(-2.08532 0.113794 0)
(-1.86126 0.0414994 0)
(-1.79681 -0.00599742 0)
(-1.71704 -0.0582796 0)
(-1.58171 -0.126167 0)
(-1.5088 -0.131529 0)
(-1.50031 -0.186211 0)
(-1.40231 -0.345769 0)
(-1.40596 -0.179339 0)
(-0.957762 -0.0402926 0)
(-0.355692 -0.193536 0)
(-0.0185029 -0.0832841 0)
(-0.453154 0.505307 0)
(0.0787714 -0.57853 0)
(0.513677 -0.144898 0)
(0.125411 1.80617 0)
(-1.38866 0.933248 0)
(-1.79203 0.720898 0)
(-2.17804 -0.143534 0)
(-2.88501 -0.186826 0)
(-2.11624 -0.0925975 0)
(-1.78806 -0.111417 0)
(-1.7832 -0.278886 0)
(-1.50999 -0.114989 0)
(-1.36004 -0.330678 0)
(-1.49794 -0.535151 0)
(-1.25966 -0.36324 0)
(-1.02834 -0.516024 0)
(-0.701749 -0.270919 0)
(-0.368817 -0.264388 0)
(-0.069236 -0.176821 0)
(-0.259356 0.556206 0)
(0.201563 -0.641416 0)
(0.168446 -0.154431 0)
(1.64789 1.7882 0)
(-1.25589 1.43961 0)
(-1.61217 1.07427 0)
(-2.04863 0.0648443 0)
(-2.35223 0.128337 0)
(-1.68397 0.197737 0)
(-1.57777 -0.359324 0)
(-1.44179 -0.464127 0)
(-1.37508 0.259872 0)
(-0.816134 -0.229606 0)
(-1.63861 -0.597276 0)
(-1.31161 -0.262159 0)
(-0.924811 -0.417548 0)
(-0.604505 -0.372917 0)
(-0.386659 -0.429301 0)
(-0.0571589 -0.261948 0)
(1.23648 0.628698 0)
(0.284007 -0.663655 0)
(0.220648 -0.298076 0)
(1.46121 0.982265 0)
(-0.793381 1.81174 0)
(-1.52334 1.02284 0)
(-2.1235 0.265904 0)
(-2.21525 0.17796 0)
(-1.73131 -0.241111 0)
(-1.73957 -0.400748 0)
(-1.06685 -0.222069 0)
(-0.765945 -0.256347 0)
(-0.583507 -0.444251 0)
(-1.78281 -0.432378 0)
(-1.22664 -0.25154 0)
(-0.836407 -0.274455 0)
(-0.522172 -0.519222 0)
(-0.316203 -0.484486 0)
(-0.143735 -0.376081 0)
(0.320727 0.20559 0)
(0.389297 -0.505831 0)
(0.346707 -0.349418 0)
(1.20421 0.812738 0)
(-0.235923 2.37381 0)
(-0.997195 0.638941 0)
(-1.70485 0.336061 0)
(-1.78303 0.150439 0)
(-1.5404 -0.015955 0)
(-2.14088 -0.446786 0)
(-0.53516 -0.546565 0)
(-0.126273 -0.101894 0)
(-0.439482 -0.318883 0)
(-2.07011 -0.5253 0)
(-1.49205 -0.335267 0)
(-0.711952 -0.450168 0)
(-0.385944 -0.591515 0)
(-0.295197 -0.613125 0)
(-0.148006 -0.43949 0)
(0.19871 -0.135868 0)
(0.459529 -0.461934 0)
(0.399591 -0.398051 0)
(0.943648 0.772595 0)
(1.54347 3.46369 0)
(1.08319 1.54251 0)
(-0.603047 0.127575 0)
(-1.14345 0.106104 0)
(-0.713348 -0.245422 0)
(-0.879298 -0.292229 0)
(-0.432933 -0.985501 0)
(-0.0693184 -0.199428 0)
(-0.751187 -0.116631 0)
(-1.58635 -0.458398 0)
(-2.20731 -0.0851224 0)
(-0.708063 -0.646579 0)
(-0.245892 -0.719898 0)
(-0.203909 -0.660669 0)
(-0.12207 -0.476553 0)
(0.250908 -0.312706 0)
(0.507413 -0.334786 0)
(0.42799 -0.492401 0)
(0.407759 -0.00315011 0)
(2.07078 2.74822 0)
(5.66067 2.18761 0)
(4.67936 1.09608 0)
(2.55025 0.500694 0)
(2.01644 -0.00421135 0)
(2.44986 -0.519657 0)
(2.11814 -0.672265 0)
(0.642978 -0.0739655 0)
(0.271241 0.232884 0)
(0.222723 -0.19255 0)
(-1.74231 -0.248013 0)
(-0.599483 -0.69878 0)
(-0.172099 -0.828434 0)
(-0.163023 -0.719397 0)
(-0.0808106 -0.50468 0)
(0.0377796 -0.0993271 0)
(0.0634992 -0.0962665 0)
(0.128936 -0.104298 0)
(0.13627 -0.0691657 0)
(0.201935 -0.0824713 0)
(0.183497 -0.079978 0)
(0.168899 -0.0912629 0)
(0.189815 -0.0600152 0)
(0.166505 -0.0285871 0)
(0.145092 0.0225542 0)
(0.12404 0.0433574 0)
(0.103478 0.0566467 0)
(0.0771099 0.0708244 0)
(0.0420198 0.0503084 0)
(0.0528259 0.0538229 0)
(0.0356319 0.0365557 0)
(0.0361218 0.00740332 0)
(0.0428465 0.0107038 0)
(0.0626178 -0.0172246 0)
(0.0582592 0.0352456 0)
(0.0920873 0.0249305 0)
(0.193572 0.124617 0)
(0.165087 0.230814 0)
(0.0405675 -0.118605 0)
(0.0551168 -0.115059 0)
(0.146063 -0.11739 0)
(0.147879 -0.098219 0)
(0.139042 -0.103167 0)
(0.17634 -0.159577 0)
(0.184559 -0.0517402 0)
(0.197423 -0.0556555 0)
(0.189651 -0.00148722 0)
(0.160842 0.0445478 0)
(0.125253 0.061832 0)
(0.0949628 0.0803562 0)
(0.0652626 0.0530323 0)
(0.063911 0.0441083 0)
(0.0510412 0.0343132 0)
(0.0378489 0.00502581 0)
(0.0622443 0.00536623 0)
(0.0413117 -0.0181145 0)
(0.0810681 -0.00705728 0)
(0.126707 -0.00394146 0)
(0.20471 0.0329577 0)
(0.194022 0.0702841 0)
(0.20798 0.0588686 0)
(0.00184224 -0.147043 0)
(0.0248149 -0.150033 0)
(0.00853438 -0.150406 0)
(0.0636255 -0.203642 0)
(0.101843 -0.116066 0)
(0.11395 -0.127048 0)
(0.133151 -0.109167 0)
(0.153946 -0.0690474 0)
(0.140618 0.0125491 0)
(0.0976724 0.0868715 0)
(0.00536899 0.111238 0)
(0.00641236 0.119321 0)
(-0.0228995 0.0976454 0)
(-0.00696821 0.0654485 0)
(0.0145039 0.0343033 0)
(0.0319508 0.027236 0)
(0.0616037 -0.00390436 0)
(0.0876804 -0.0242607 0)
(0.108449 0.000733204 0)
(0.105001 -0.0202366 0)
(0.124178 -0.0130264 0)
(0.139838 -0.0648116 0)
(0.165378 -0.0380925 0)
(0.000653462 -0.147437 0)
(-0.0503957 -0.123752 0)
(-0.0500933 -0.167166 0)
(-0.0694301 -0.177999 0)
(-0.0383043 -0.158966 0)
(-0.0499665 -0.17121 0)
(-0.0897374 -0.0980794 0)
(-0.13184 -0.0506192 0)
(-0.143046 0.0975892 0)
(-0.205255 0.198409 0)
(-0.293689 0.180888 0)
(-0.307088 0.111757 0)
(-0.24453 0.0724914 0)
(-0.160356 0.00733977 0)
(-0.0756363 -0.00402888 0)
(-0.0456703 -0.0438895 0)
(-0.0144733 -0.0490493 0)
(0.0184416 -0.0470905 0)
(0.0703828 -0.025384 0)
(0.0803435 -0.0227531 0)
(0.104423 -0.00374148 0)
(0.133402 -0.0141583 0)
(0.152202 -0.0116252 0)
(-0.0287623 -0.0923634 0)
(-0.0672758 -0.109769 0)
(-0.0720139 -0.169448 0)
(-0.0551346 -0.170587 0)
(-0.044753 -0.136158 0)
(-0.0787997 -0.0821301 0)
(-0.140944 -0.0339082 0)
(-0.1838 -0.013872 0)
(-0.171775 0.0381114 0)
(-0.183667 0.195973 0)
(-0.189041 0.384449 0)
(-0.163308 0.305428 0)
(-0.239518 0.188394 0)
(-0.148612 -0.10252 0)
(-0.12239 -0.143654 0)
(-0.111319 -0.0489351 0)
(-0.140478 -0.0459433 0)
(-0.0543099 -0.10563 0)
(-0.0987401 -0.143069 0)
(0.00457704 -0.120256 0)
(-0.0709121 -0.0704504 0)
(-0.0513604 -0.0672469 0)
(-0.0132934 -0.0716459 0)
(-0.0101375 -0.0517841 0)
(-0.0383354 -0.0813092 0)
(-0.0474707 -0.187259 0)
(-0.0128089 -0.198935 0)
(-0.0346268 -0.138438 0)
(-0.0502883 -0.0631891 0)
(-0.100435 0.00151692 0)
(-0.146868 -0.00447115 0)
(-0.190475 0.052072 0)
(-0.176564 0.0814454 0)
(-0.0995931 0.155824 0)
(-0.0666821 0.231307 0)
(-0.00340084 0.0143306 0)
(0.00552642 0.0384606 0)
(-0.0207152 -0.179143 0)
(0.0172081 -0.10738 0)
(-0.0944814 0.0226814 0)
(-0.00849996 -0.0888825 0)
(-0.288676 -0.062469 0)
(-0.394487 -0.0262103 0)
(-0.248864 -0.0416118 0)
(0.0084953 -0.0238898 0)
(-0.104278 -0.0788719 0)
(-0.012102 -0.0436445 0)
(-0.010463 -0.0709738 0)
(-0.019758 -0.187916 0)
(0.0158575 -0.188732 0)
(-0.0142729 -0.133772 0)
(-0.0193084 -0.0517911 0)
(-0.0707676 0.0136356 0)
(-0.0871354 0.035964 0)
(-0.0610731 0.0534449 0)
(-0.141075 0.0995927 0)
(-0.0976035 0.164336 0)
(0.04879 0.0851989 0)
(-0.00646408 -0.0104643 0)
(0.0525882 -0.0487886 0)
(0.0167342 -0.055978 0)
(-0.00567153 -0.0368547 0)
(0.00559703 -0.0148829 0)
(-0.000248553 0.0269257 0)
(-0.0585892 -0.0366008 0)
(-0.0775186 -0.0414518 0)
(-0.0956844 -0.13149 0)
(-0.137132 -0.180042 0)
(-0.152501 0.0670674 0)
(-0.0128598 -0.0390408 0)
(-0.00936287 -0.0638475 0)
(-0.00915086 -0.212322 0)
(0.0331555 -0.203978 0)
(0.0133939 -0.118659 0)
(0.000138314 -0.0344647 0)
(-0.0303795 0.037654 0)
(-0.0665261 0.0607639 0)
(-0.0480479 0.0944966 0)
(-0.0126604 0.0644585 0)
(-0.0227703 0.160481 0)
(-0.00292727 0.0491049 0)
(0.00238531 -0.00278498 0)
(-0.0108727 -0.0183675 0)
(-0.0204973 -0.070993 0)
(-0.043044 -0.0225425 0)
(-0.0436806 -0.00587883 0)
(-0.0306473 0.0238873 0)
(-0.00972242 -0.0211457 0)
(0.00579755 -0.0605523 0)
(0.0180892 -0.0979364 0)
(-0.000753662 -0.151171 0)
(0.0109913 -0.188865 0)
(-0.00778914 -0.0330801 0)
(-0.0126948 -0.0642382 0)
(0.00142907 -0.230902 0)
(0.0438728 -0.212925 0)
(0.0205447 -0.102403 0)
(0.00418501 -0.01875 0)
(-0.0121896 0.0444659 0)
(-0.0185148 0.0504865 0)
(-0.0126294 0.119026 0)
(-0.025502 0.0677664 0)
(0.00317292 0.0490487 0)
(0.0176159 0.0429902 0)
(0.0093088 -0.00869613 0)
(0.00495495 -0.00509805 0)
(-0.00233977 -0.0413788 0)
(-0.034059 -0.00760992 0)
(-0.0327555 -0.0140705 0)
(-0.0346987 -0.0325156 0)
(-0.05145 -0.0388498 0)
(-0.0477597 -0.0776631 0)
(-0.0612351 -0.106414 0)
(-0.00561969 -0.147922 0)
(0.058772 -0.175828 0)
(-0.00275868 -0.0276496 0)
(-0.0135446 -0.0622178 0)
(0.0104733 -0.269369 0)
(0.0503893 -0.226243 0)
(0.0256113 -0.0790869 0)
(-0.00481722 -0.00200647 0)
(-0.00895746 0.0572169 0)
(0.00785089 0.0511051 0)
(-0.0128528 0.0997905 0)
(-0.0222702 0.0790386 0)
(0.0312567 0.0875417 0)
(0.0243244 0.0604569 0)
(0.055844 0.0156232 0)
(0.0342588 0.00304439 0)
(-0.0067226 -0.0213457 0)
(-0.0111384 -0.00122102 0)
(-0.0187627 -0.0149626 0)
(-0.0231539 0.0232064 0)
(-0.0229687 -0.0229759 0)
(-0.0180196 -0.0147261 0)
(-0.0376249 -0.0294316 0)
(-0.101825 -0.0724025 0)
(-0.172098 -0.140306 0)
(-0.00029132 -0.025265 0)
(-0.00415619 -0.0700058 0)
(0.0118367 -0.296731 0)
(0.0499905 -0.228565 0)
(0.0139119 -0.0476586 0)
(-0.0242372 0.0124481 0)
(-0.0168854 0.0407612 0)
(0.00083445 0.0493764 0)
(0.00976932 0.0544293 0)
(0.00925684 0.0879449 0)
(0.0320268 0.0529073 0)
(0.0361157 0.0821912 0)
(0.0216534 -0.0136891 0)
(0.0243205 0.0199758 0)
(0.0269069 -0.00526082 0)
(0.0231272 0.0150946 0)
(0.0119927 -0.0158693 0)
(-0.0367153 -0.0178567 0)
(-0.0243164 -0.0239388 0)
(-0.0461983 -0.0429134 0)
(-0.10412 -0.0278885 0)
(-0.034764 -0.0707112 0)
(-0.06067 -0.111362 0)
(-0.00233323 -0.024611 0)
(0.0138277 -0.071462 0)
(0.0227032 -0.329583 0)
(0.0366835 -0.224063 0)
(-0.0083636 -0.00623107 0)
(-0.0407 0.0175837 0)
(-0.0100404 0.0429717 0)
(-0.012939 0.0311653 0)
(0.0235459 0.0803379 0)
(0.033673 -0.00510198 0)
(0.0617047 0.104821 0)
(0.0341771 0.0259011 0)
(0.0713732 0.0355516 0)
(0.100833 -0.0151099 0)
(0.0338411 0.0207364 0)
(0.0224594 0.00177441 0)
(8.40783e-05 0.0247046 0)
(-0.00566377 0.0327715 0)
(0.0105376 -0.00739035 0)
(-0.015498 0.0103249 0)
(-0.00336815 -0.0245894 0)
(-0.0742499 -0.0483594 0)
(-0.16778 -0.122476 0)
(-0.000220184 -0.0378885 0)
(0.0202701 -0.0778725 0)
(0.0248171 -0.342548 0)
(0.017596 -0.195488 0)
(-0.0412854 0.0317109 0)
(-0.0404563 0.0120222 0)
(-0.0286886 0.0172959 0)
(-0.00116696 0.0193293 0)
(-0.0072516 0.0467353 0)
(0.0757784 0.0110826 0)
(0.07085 0.0525036 0)
(0.0720715 0.0270802 0)
(0.0825133 0.03249 0)
(0.0854496 -0.0271048 0)
(0.0456688 0.0709006 0)
(0.0525454 0.0559284 0)
(0.102582 0.00963208 0)
(0.0357607 -0.0127137 0)
(0.0304422 -0.0287487 0)
(0.0335397 0.00724853 0)
(-0.0296899 0.0217852 0)
(-0.0478825 -0.0216356 0)
(-0.0557056 -0.0201726 0)
(-0.00976405 -0.0319537 0)
(0.0116003 -0.0838594 0)
(0.0212875 -0.341419 0)
(0.0101037 -0.158902 0)
(-0.0449793 0.0491064 0)
(-0.0266985 0.000764519 0)
(-0.0089392 0.00142275 0)
(0.00520202 0.00637525 0)
(0.0126877 0.0350018 0)
(0.0366741 -0.0170707 0)
(0.134402 0.0907816 0)
(0.148359 -0.0103792 0)
(0.095429 0.011348 0)
(0.159238 0.0250188 0)
(0.154391 0.130675 0)
(0.0801821 0.0294239 0)
(0.0834288 0.0668562 0)
(0.0832397 -0.000644064 0)
(0.0727351 0.0489057 0)
(0.0716052 0.00839277 0)
(-0.0127045 0.0637419 0)
(-0.0802177 0.0226901 0)
(-0.118343 0.046345 0)
(-0.0222598 -0.0430785 0)
(0.00516424 -0.1106 0)
(0.0137485 -0.339826 0)
(-0.000456285 -0.126091 0)
(-0.044794 0.0741645 0)
(0.0121447 -0.0208262 0)
(-0.0156275 -0.0195303 0)
(0.0484 0.0107726 0)
(0.0449786 -0.0435994 0)
(0.124151 -0.015624 0)
(0.135266 -0.0720509 0)
(0.105245 -0.0625423 0)
(0.0707613 0.0104671 0)
(0.117241 0.11055 0)
(0.0727957 0.0465301 0)
(0.141239 -0.00530853 0)
(0.139808 -0.0105681 0)
(0.0901275 0.00120025 0)
(0.0995557 0.074636 0)
(0.00749862 0.0648036 0)
(0.00579372 0.108079 0)
(0.0408709 0.132012 0)
(-0.0552854 0.117665 0)
(-0.0311265 -0.00973794 0)
(0.00705819 -0.119456 0)
(0.0116782 -0.33453 0)
(0.0132076 -0.101924 0)
(-0.0516132 0.103851 0)
(-0.00808733 -0.0281132 0)
(0.00755961 -0.027531 0)
(0.0122639 -0.0241602 0)
(0.101655 -0.0562159 0)
(0.0688275 0.00775621 0)
(0.102498 -0.0887246 0)
(0.15289 -0.0187267 0)
(0.104998 0.00188413 0)
(0.113906 0.0774814 0)
(0.0878358 -0.00234634 0)
(0.128884 0.0995981 0)
(0.140572 -0.0313222 0)
(0.0717112 0.156435 0)
(0.0696675 0.0625841 0)
(0.103521 0.138921 0)
(0.126243 0.156485 0)
(0.0327514 0.149103 0)
(-0.116405 0.122759 0)
(-0.0488572 -0.0220103 0)
(0.00714796 -0.16271 0)
(-0.0133769 -0.334676 0)
(-0.0338511 -0.0928817 0)
(-0.0462845 0.0513567 0)
(0.0346418 -0.082479 0)
(-0.00893245 -0.0444336 0)
(0.0485683 -0.0738446 0)
(0.117824 -0.0360159 0)
(0.111926 -0.0714423 0)
(0.0867652 -0.0207878 0)
(0.0788941 -0.0261452 0)
(0.0709086 0.039312 0)
(0.0517587 0.0278622 0)
(0.142022 0.0351216 0)
(0.139473 0.0864969 0)
(0.129714 0.0305506 0)
(0.161054 0.155477 0)
(0.108176 0.0591245 0)
(0.0966837 0.137764 0)
(0.0248128 0.203524 0)
(0.0625769 0.212419 0)
(-0.0214813 0.150099 0)
(-0.089677 0.0336659 0)
(0.0160058 -0.150725 0)
(-0.0200262 -0.315444 0)
(-0.0322144 -0.0454523 0)
(-0.0587405 0.0639974 0)
(0.0447811 -0.0541147 0)
(0.01723 -0.0470146 0)
(0.0679996 -0.0681363 0)
(0.118295 -0.0826101 0)
(0.0981005 -0.0894777 0)
(0.0528637 -0.013636 0)
(0.0989031 -0.0116164 0)
(0.0822119 0.056079 0)
(0.108769 -0.00487557 0)
(0.139194 0.0912284 0)
(0.121353 -0.017545 0)
(0.164899 0.129006 0)
(0.15351 0.0743809 0)
(0.0930433 0.0835931 0)
(0.222729 0.110104 0)
(0.194358 0.144763 0)
(0.00930181 0.316063 0)
(0.00596759 0.263284 0)
(0.0637295 0.0589271 0)
(0.00494856 -0.241444 0)
(-0.0399993 -0.27375 0)
(-0.0142832 -0.0949618 0)
(-0.0295199 0.00484458 0)
(0.0660681 -0.157981 0)
(-0.047664 -0.0631748 0)
(0.0498568 -0.0803585 0)
(0.0667457 -0.049806 0)
(0.13348 -0.102849 0)
(0.0615225 -0.0476808 0)
(0.0801538 -0.0683828 0)
(0.0511265 0.0246061 0)
(0.148955 -0.0308986 0)
(0.176426 -0.0193203 0)
(0.201203 0.055469 0)
(0.253186 0.119455 0)
(0.146501 0.0944967 0)
(0.151892 0.134417 0)
(0.141133 0.151056 0)
(0.2002 0.205984 0)
(0.173753 0.187053 0)
(0.0285384 0.288021 0)
(0.00206561 -0.0432515 0)
(0.128003 -0.318293 0)
(-0.0145542 -0.353326 0)
(-0.101643 -0.172228 0)
(-0.0214787 -0.115458 0)
(0.0425471 -0.22013 0)
(0.06044 -0.169808 0)
(0.073268 -0.177943 0)
(0.0446635 -0.0760042 0)
(0.091939 -0.0822144 0)
(0.0504763 -0.100742 0)
(0.127358 -0.00316065 0)
(0.149549 -0.074531 0)
(0.166135 0.0196332 0)
(0.232382 -0.110041 0)
(0.093394 0.102431 0)
(0.155567 0.0210763 0)
(0.173739 0.111485 0)
(0.175065 0.13557 0)
(0.299259 0.160638 0)
(0.266502 0.250415 0)
(0.169485 0.213667 0)
(0.178849 0.33771 0)
(-0.0355239 -0.0709967 0)
(0.0506383 -0.324917 0)
(-0.0271234 -0.394334 0)
(0.0124484 -0.191943 0)
(-0.0126223 -0.162152 0)
(0.0592722 -0.198134 0)
(0.0304187 -0.227961 0)
(0.0578257 -0.197959 0)
(0.0942236 -0.120218 0)
(0.122506 -0.125421 0)
(0.091767 -0.0745915 0)
(0.0838414 -0.0450358 0)
(0.166697 -0.0702039 0)
(0.0869398 0.0668688 0)
(0.128032 -0.0632935 0)
(0.235438 -0.0245161 0)
(0.279099 -0.0128777 0)
(0.283063 0.0734005 0)
(0.238691 0.178904 0)
(0.333146 0.110066 0)
(0.29279 0.150866 0)
(0.318517 0.271511 0)
(0.252227 0.397676 0)
(-0.0251188 -0.0805587 0)
(0.0487385 -0.312689 0)
(-0.0202264 -0.334088 0)
(0.0202291 -0.186503 0)
(0.0188301 -0.219174 0)
(0.0554213 -0.225451 0)
(0.0200771 -0.260671 0)
(0.103294 -0.15628 0)
(0.0932323 -0.104694 0)
(0.130439 -0.178278 0)
(0.0493145 -0.0473654 0)
(0.101779 -0.125256 0)
(0.244502 -0.0496139 0)
(0.159569 -0.0691629 0)
(0.172409 -0.0732323 0)
(0.175498 -0.0125296 0)
(0.252478 0.00571675 0)
(0.357444 0.197603 0)
(0.247257 0.119405 0)
(0.277791 0.23362 0)
(0.401695 0.279184 0)
(0.419809 0.451081 0)
(0.377345 0.376807 0)
(-0.0445546 -0.113872 0)
(0.0179033 -0.324701 0)
(-0.0107109 -0.321234 0)
(0.000512826 -0.28242 0)
(0.00593649 -0.150722 0)
(0.0755159 -0.269171 0)
(0.0621385 -0.211523 0)
(0.150995 -0.137481 0)
(0.0829816 -0.169886 0)
(0.131216 -0.184719 0)
(0.132776 -0.177531 0)
(0.109062 -0.121271 0)
(0.264305 -0.0847241 0)
(0.140279 -0.204602 0)
(0.178553 -0.0639185 0)
(0.300069 -0.144 0)
(0.412353 0.0977611 0)
(0.345389 0.0200831 0)
(0.340033 -0.0700878 0)
(0.398001 0.182068 0)
(0.455776 0.271825 0)
(0.423461 0.347188 0)
(0.266087 0.453884 0)
(-0.029439 -0.0733749 0)
(0.0427336 -0.354113 0)
(-0.0599133 -0.344547 0)
(0.0381685 -0.179645 0)
(0.0474214 -0.111834 0)
(0.0810588 -0.185326 0)
(0.120436 -0.155256 0)
(0.108221 -0.0770153 0)
(0.0571792 -0.157244 0)
(0.141863 -0.0614087 0)
(0.147833 -0.209944 0)
(0.213755 -0.0405235 0)
(0.128955 -0.114574 0)
(0.199485 -0.218146 0)
(0.258696 -0.0198003 0)
(0.291048 -0.0452353 0)
(0.409955 -0.058173 0)
(0.271005 -0.0493186 0)
(0.410776 -0.0787183 0)
(0.606875 0.14369 0)
(0.598697 0.126751 0)
(0.671388 0.332146 0)
(0.596433 0.277527 0)
(-0.110558 -0.00874231 0)
(-0.00273871 -0.244833 0)
(0.0483711 -0.260952 0)
(0.111017 -0.168882 0)
(0.0460426 -0.153919 0)
(0.103508 -0.164538 0)
(0.127217 -0.155542 0)
(0.118471 -0.171877 0)
(0.0771943 -0.228104 0)
(0.0179441 -0.1026 0)
(0.140975 -0.234294 0)
(0.162409 -0.14914 0)
(0.118268 -0.282535 0)
(0.264894 -0.15649 0)
(0.368954 -0.262731 0)
(0.261377 -0.0621673 0)
(0.36999 -0.164354 0)
(0.326955 -0.0313011 0)
(0.415415 0.146033 0)
(0.634483 0.312783 0)
(0.798404 0.257054 0)
(0.697573 0.291354 0)
(0.755985 0.198517 0)
(-0.0744381 0.0080726 0)
(0.0483332 -0.216091 0)
(-0.0172376 -0.217575 0)
(0.024721 -0.154566 0)
(0.0522712 -0.0838732 0)
(0.122612 -0.146698 0)
(0.065351 -0.270409 0)
(0.000481902 -0.219662 0)
(0.0942087 -0.262596 0)
(0.0575925 -0.239318 0)
(0.144988 -0.219865 0)
(0.12366 -0.265105 0)
(0.167514 -0.284284 0)
(0.211425 -0.196299 0)
(0.374299 -0.24 0)
(0.356968 -0.111817 0)
(0.428463 -0.151574 0)
(0.496188 -0.0104334 0)
(0.754562 0.0839185 0)
(0.789936 -0.12575 0)
(0.707972 -0.0221027 0)
(0.635454 0.0920643 0)
(0.711685 0.217203 0)
(0.00353468 0.0689766 0)
(0.110532 -0.242052 0)
(0.0609386 -0.213801 0)
(0.138728 -0.212712 0)
(0.120024 -0.235959 0)
(0.00563349 -0.273164 0)
(0.0258574 -0.314515 0)
(0.052087 -0.272659 0)
(0.080558 -0.283163 0)
(0.0842457 -0.259638 0)
(0.1301 -0.221691 0)
(0.112835 -0.319896 0)
(0.207967 -0.210347 0)
(0.297774 -0.285202 0)
(0.443746 -0.180588 0)
(0.320663 -0.272823 0)
(0.439127 -0.0932469 0)
(0.571163 -0.142352 0)
(0.462358 -0.191089 0)
(0.689529 -0.267725 0)
(1.02351 0.201335 0)
(0.838279 0.120044 0)
(0.762232 0.268792 0)
(0.115273 -0.135539 0)
(0.0932922 -0.363271 0)
(-0.0419984 -0.311032 0)
(-0.0367527 -0.360424 0)
(0.0329583 -0.359701 0)
(0.0349948 -0.361453 0)
(0.0591564 -0.341966 0)
(0.0393103 -0.330101 0)
(0.112363 -0.306243 0)
(0.134623 -0.339209 0)
(0.0839965 -0.286281 0)
(0.15591 -0.346459 0)
(0.27694 -0.242368 0)
(0.285599 -0.308363 0)
(0.343575 -0.233103 0)
(0.380257 -0.369356 0)
(0.572842 -0.109342 0)
(0.486806 -0.329165 0)
(0.496511 -0.174492 0)
(0.954373 -0.145921 0)
(0.898086 -0.141408 0)
(0.781313 -0.304122 0)
(0.847805 -0.0198506 0)
(0.0207135 -0.31658 0)
(0.0551197 -0.411662 0)
(0.0518649 -0.428677 0)
(0.0388104 -0.37945 0)
(0.0565906 -0.362314 0)
(0.0539826 -0.335419 0)
(0.0627907 -0.340365 0)
(0.0793757 -0.346689 0)
(0.0874249 -0.304642 0)
(0.120078 -0.383515 0)
(0.104671 -0.282858 0)
(0.175385 -0.292114 0)
(0.27705 -0.356279 0)
(0.327619 -0.303346 0)
(0.25794 -0.305913 0)
(0.325376 -0.342002 0)
(0.459169 -0.302721 0)
(0.569823 -0.432627 0)
(0.624194 -0.195898 0)
(0.689238 -0.230767 0)
(0.69237 -0.389588 0)
(0.873349 -0.354409 0)
(1.29321 -0.00917737 0)
(0.0125222 -0.30912 0)
(0.0228567 -0.359909 0)
(0.0172303 -0.385148 0)
(0.0254027 -0.378739 0)
(0.0647662 -0.383147 0)
(0.0559276 -0.388278 0)
(0.0531036 -0.381395 0)
(0.081859 -0.378857 0)
(0.0713466 -0.374835 0)
(0.155593 -0.367495 0)
(0.189076 -0.363226 0)
(0.122835 -0.35031 0)
(0.273026 -0.264264 0)
(0.305277 -0.342845 0)
(0.26472 -0.361076 0)
(0.333719 -0.324502 0)
(0.35398 -0.425657 0)
(0.558192 -0.34414 0)
(0.668172 -0.55491 0)
(0.622122 -0.307667 0)
(0.660611 -0.34335 0)
(0.979901 0.0767578 0)
(1.22414 -0.104456 0)
(0.00922306 -0.373579 0)
(0.0240633 -0.410769 0)
(0.0336045 -0.418175 0)
(0.0439849 -0.406167 0)
(0.0571017 -0.390699 0)
(0.0647523 -0.414188 0)
(0.0784493 -0.399938 0)
(0.0922025 -0.398654 0)
(0.105916 -0.408733 0)
(0.137269 -0.383273 0)
(0.131023 -0.465164 0)
(0.261798 -0.414428 0)
(0.373504 -0.336722 0)
(0.236719 -0.523492 0)
(0.209476 -0.42009 0)
(0.221428 -0.437576 0)
(0.415773 -0.442126 0)
(0.569537 -0.34489 0)
(0.607944 -0.653383 0)
(0.498746 -0.583362 0)
(0.561142 -0.551024 0)
(0.638255 -0.0269279 0)
(0.853701 0.0843006 0)
(0.00814647 -0.381031 0)
(0.0120244 -0.41474 0)
(0.0259744 -0.421252 0)
(0.0578074 -0.423215 0)
(0.0547689 -0.430635 0)
(0.047019 -0.430499 0)
(0.0678008 -0.433406 0)
(0.0753404 -0.435712 0)
(0.0958821 -0.438245 0)
(0.095175 -0.435907 0)
(0.145519 -0.460712 0)
(0.265297 -0.445968 0)
(0.229895 -0.572995 0)
(0.187155 -0.577728 0)
(0.192506 -0.486729 0)
(0.262992 -0.472218 0)
(0.475726 -0.402814 0)
(0.347592 -0.536844 0)
(0.394769 -0.830637 0)
(0.389763 -0.841832 0)
(0.567541 -0.645474 0)
(0.862477 -0.585333 0)
(0.793777 -0.0563435 0)
(0.00756743 -0.414652 0)
(0.0184857 -0.443175 0)
(0.030028 -0.437734 0)
(0.0393572 -0.443479 0)
(0.0512301 -0.458754 0)
(0.0595487 -0.454723 0)
(0.0729926 -0.454073 0)
(0.0862235 -0.458587 0)
(0.101262 -0.456368 0)
(0.121341 -0.470681 0)
(0.140031 -0.455688 0)
(0.166173 -0.504809 0)
(0.175715 -0.571957 0)
(0.187532 -0.542554 0)
(0.170465 -0.468964 0)
(0.268467 -0.442521 0)
(0.402521 -0.490526 0)
(0.290405 -0.585843 0)
(0.363015 -0.760347 0)
(0.437551 -0.713878 0)
(0.595672 -0.484598 0)
(0.898457 -0.689206 0)
(0.834979 -0.136189 0)
(0.00655596 -0.432555 0)
(0.0145285 -0.459126 0)
(0.0245145 -0.461745 0)
(0.0358047 -0.466432 0)
(0.0450024 -0.470036 0)
(0.0526243 -0.476968 0)
(0.0656575 -0.482227 0)
(0.0759723 -0.493172 0)
(0.0916002 -0.497205 0)
(0.104466 -0.513585 0)
(0.122548 -0.52344 0)
(0.146918 -0.549749 0)
(0.148651 -0.58038 0)
(0.162393 -0.582132 0)
(0.161784 -0.485357 0)
(0.25174 -0.44321 0)
(0.391523 -0.535217 0)
(0.362148 -0.621813 0)
(0.550034 -0.591083 0)
(0.590612 -0.725591 0)
(0.395828 -0.669297 0)
(0.646832 -0.844658 0)
(0.818641 -0.351319 0)
(0.00589846 -0.456009 0)
(0.01422 -0.478041 0)
(0.0229544 -0.479626 0)
(0.0311509 -0.484889 0)
(0.0395917 -0.489522 0)
(0.0484634 -0.496652 0)
(0.0566306 -0.499539 0)
(0.0669051 -0.510387 0)
(0.0748491 -0.513349 0)
(0.0891458 -0.533013 0)
(0.0974731 -0.539707 0)
(0.115939 -0.562684 0)
(0.117775 -0.577499 0)
(0.160457 -0.572669 0)
(0.195007 -0.512299 0)
(0.208633 -0.481644 0)
(0.291141 -0.577798 0)
(0.369602 -0.675646 0)
(0.4112 -0.644852 0)
(0.545441 -0.780734 0)
(0.346366 -0.733679 0)
(0.414959 -0.823159 0)
(0.233568 -0.131278 0)
(0.00457998 -0.471552 0)
(0.0115005 -0.491428 0)
(0.0185001 -0.493689 0)
(0.0257898 -0.498524 0)
(0.0321159 -0.502099 0)
(0.0396045 -0.510471 0)
(0.0460751 -0.516026 0)
(0.0554217 -0.528989 0)
(0.0623084 -0.537629 0)
(0.0744841 -0.558653 0)
(0.079081 -0.568786 0)
(0.0973887 -0.601928 0)
(0.107136 -0.606162 0)
(0.113057 -0.594126 0)
(0.139227 -0.56226 0)
(0.144306 -0.556934 0)
(0.237011 -0.61113 0)
(0.321313 -0.707727 0)
(0.372489 -0.735827 0)
(0.554779 -0.743462 0)
(0.0901032 -0.716278 0)
(-0.0314657 -0.596174 0)
(-0.494636 0.17843 0)
(0.0038214 -0.487601 0)
(0.0101216 -0.504591 0)
(0.0153079 -0.507077 0)
(0.0213593 -0.511386 0)
(0.0263961 -0.515827 0)
(0.032979 -0.523838 0)
(0.0372969 -0.530049 0)
(0.0451077 -0.54233 0)
(0.0472369 -0.548269 0)
(0.0570611 -0.565709 0)
(0.0515815 -0.57618 0)
(0.0786899 -0.608974 0)
(0.0825562 -0.608052 0)
(0.0699536 -0.604328 0)
(0.112902 -0.551911 0)
(0.0865425 -0.557039 0)
(0.154579 -0.608008 0)
(0.201986 -0.730188 0)
(0.11888 -0.802079 0)
(0.232992 -0.898394 0)
(0.0597251 -0.663582 0)
(0.118164 -0.162564 0)
(-0.479799 0.280446 0)
(0.00325759 -0.494181 0)
(0.00817515 -0.50888 0)
(0.0117319 -0.511162 0)
(0.0169494 -0.515319 0)
(0.0200409 -0.519506 0)
(0.0257296 -0.527088 0)
(0.0281317 -0.533721 0)
(0.0344972 -0.544326 0)
(0.0340574 -0.555693 0)
(0.0466388 -0.565881 0)
(0.0368448 -0.587953 0)
(0.0653944 -0.587331 0)
(0.0616427 -0.621226 0)
(0.0393656 -0.579408 0)
(0.0815492 -0.562081 0)
(0.0413034 -0.567759 0)
(0.0928608 -0.647339 0)
(0.129847 -0.749042 0)
(0.00663275 -0.7987 0)
(0.0961827 -0.57131 0)
(0.147419 -0.49086 0)
(-0.0872796 0.0811398 0)
(-1.1964 0.712324 0)
(0.00267581 -0.510363 0)
(0.00666434 -0.522075 0)
(0.00915536 -0.524444 0)
(0.0134392 -0.52808 0)
(0.0152128 -0.532528 0)
(0.0197276 -0.539359 0)
(0.0209352 -0.54435 0)
(0.0243495 -0.55287 0)
(0.0230694 -0.564576 0)
(0.0277566 -0.569399 0)
(0.0328821 -0.591372 0)
(0.0358698 -0.581787 0)
(0.0289959 -0.612298 0)
(0.0105003 -0.574856 0)
(0.038499 -0.562282 0)